<?xml version="1.0"?>
<VTKFile type="RectilinearGrid" version="0.1" byte_order="LittleEndian">
<RectilinearGrid WholeExtent="0    3    0    3    0    3">
<Piece Extent="1    3    1    3    1    3">
<Coordinates>
<DataArray Name="x" type="Float32" format="ascii">
0.100000000000000E-05
0.200000000000000E-05
0.300000000000000E-05
</DataArray>
<DataArray Name="y" type="Float32" format="ascii">
0.100000000000000E-05
0.200000000000000E-05
0.300000000000000E-05
</DataArray>
<DataArray Name="z" type="Float32" format="ascii">
0.100000000000000E-05
0.200000000000000E-05
0.300000000000000E-05
</DataArray>
</Coordinates>
<PointData Scalars="b1">
<DataArray type="Float32" Name="b1" format="ascii">
0.210000000000000E+02
0.220000000000000E+02
0.230000000000000E+02
0.250000000000000E+02
0.260000000000000E+02
0.270000000000000E+02
0.290000000000000E+02
0.300000000000000E+02
0.310000000000000E+02
0.370000000000000E+02
0.380000000000000E+02
0.390000000000000E+02
0.410000000000000E+02
0.420000000000000E+02
0.430000000000000E+02
0.450000000000000E+02
0.460000000000000E+02
0.470000000000000E+02
0.530000000000000E+02
0.540000000000000E+02
0.550000000000000E+02
0.570000000000000E+02
0.580000000000000E+02
0.590000000000000E+02
0.610000000000000E+02
0.620000000000000E+02
0.630000000000000E+02
</DataArray>
</PointData>
</Piece>
</RectilinearGrid>
</VTKFile>
