<?xml version="1.0"?>
<VTKFile type="RectilinearGrid" version="0.1" byte_order="LittleEndian">
<RectilinearGrid WholeExtent="0   63    0   63    0    3">
<Piece Extent="0   63    0   63    0    3">
<Coordinates>
<DataArray Name="x" type="Float32" format="ascii">
0.000000000000000E+00
0.100000000000000E+00
0.200000000000000E+00
0.300000000000000E+00
0.400000000000000E+00
0.500000000000000E+00
0.600000000000000E+00
0.700000000000000E+00
0.800000000000000E+00
0.900000000000000E+00
0.100000000000000E+01
0.110000000000000E+01
0.120000000000000E+01
0.130000000000000E+01
0.140000000000000E+01
0.150000000000000E+01
0.160000000000000E+01
0.170000000000000E+01
0.180000000000000E+01
0.190000000000000E+01
0.200000000000000E+01
0.210000000000000E+01
0.220000000000000E+01
0.230000000000000E+01
0.240000000000000E+01
0.250000000000000E+01
0.260000000000000E+01
0.270000000000000E+01
0.280000000000000E+01
0.290000000000000E+01
0.300000000000000E+01
0.310000000000000E+01
0.320000000000000E+01
0.330000000000000E+01
0.340000000000000E+01
0.350000000000000E+01
0.360000000000000E+01
0.370000000000000E+01
0.380000000000000E+01
0.390000000000000E+01
0.400000000000000E+01
0.410000000000000E+01
0.420000000000000E+01
0.430000000000000E+01
0.440000000000000E+01
0.450000000000000E+01
0.460000000000000E+01
0.470000000000000E+01
0.480000000000000E+01
0.490000000000000E+01
0.500000000000000E+01
0.510000000000000E+01
0.520000000000000E+01
0.530000000000000E+01
0.540000000000000E+01
0.550000000000000E+01
0.560000000000000E+01
0.570000000000000E+01
0.580000000000000E+01
0.590000000000000E+01
0.600000000000000E+01
0.610000000000000E+01
0.620000000000000E+01
0.630000000000000E+01
</DataArray>
<DataArray Name="y" type="Float32" format="ascii">
0.000000000000000E+00
0.100000000000000E+00
0.200000000000000E+00
0.300000000000000E+00
0.400000000000000E+00
0.500000000000000E+00
0.600000000000000E+00
0.700000000000000E+00
0.800000000000000E+00
0.900000000000000E+00
0.100000000000000E+01
0.110000000000000E+01
0.120000000000000E+01
0.130000000000000E+01
0.140000000000000E+01
0.150000000000000E+01
0.160000000000000E+01
0.170000000000000E+01
0.180000000000000E+01
0.190000000000000E+01
0.200000000000000E+01
0.210000000000000E+01
0.220000000000000E+01
0.230000000000000E+01
0.240000000000000E+01
0.250000000000000E+01
0.260000000000000E+01
0.270000000000000E+01
0.280000000000000E+01
0.290000000000000E+01
0.300000000000000E+01
0.310000000000000E+01
0.320000000000000E+01
0.330000000000000E+01
0.340000000000000E+01
0.350000000000000E+01
0.360000000000000E+01
0.370000000000000E+01
0.380000000000000E+01
0.390000000000000E+01
0.400000000000000E+01
0.410000000000000E+01
0.420000000000000E+01
0.430000000000000E+01
0.440000000000000E+01
0.450000000000000E+01
0.460000000000000E+01
0.470000000000000E+01
0.480000000000000E+01
0.490000000000000E+01
0.500000000000000E+01
0.510000000000000E+01
0.520000000000000E+01
0.530000000000000E+01
0.540000000000000E+01
0.550000000000000E+01
0.560000000000000E+01
0.570000000000000E+01
0.580000000000000E+01
0.590000000000000E+01
0.600000000000000E+01
0.610000000000000E+01
0.620000000000000E+01
0.630000000000000E+01
</DataArray>
<DataArray Name="z" type="Float32" format="ascii">
0.000000000000000E+00
0.100000000000000E+00
0.200000000000000E+00
0.300000000000000E+00
</DataArray>
</Coordinates>
<PointData Scalars="c">
<DataArray type="Float32" Name="c" format="ascii">
0.448203028381740E+02
0.441396860690543E+02
0.434503650293259E+02
0.427736100318420E+02
0.421100416589933E+02
0.414603087027621E+02
0.408250883110573E+02
0.402050858863603E+02
0.396010346909776E+02
0.390136951096951E+02
0.384438535178544E+02
0.378923207011482E+02
0.373599297731690E+02
0.368475335383910E+02
0.363560012522829E+02
0.358862147371361E+02
0.354390638223776E+02
0.350154410919868E+02
0.346162359393642E+02
0.342423279516103E+02
0.338945796703822E+02
0.335738288046900E+02
0.332808800011560E+02
0.330164963079858E+02
0.327813904984125E+02
0.325762164455939E+02
0.324015607616702E+02
0.322579349267284E+02
0.321457681368772E+02
0.320654010931051E+02
0.320170809334172E+02
0.320009574801354E+02
0.320170809334172E+02
0.320654010931051E+02
0.321457681368772E+02
0.322579349267284E+02
0.324015607616702E+02
0.325762164455939E+02
0.327813904984125E+02
0.330164963079858E+02
0.332808800011560E+02
0.335738288046900E+02
0.338945796703822E+02
0.342423279516103E+02
0.346162359393642E+02
0.350154410919868E+02
0.354390638223776E+02
0.358862147371361E+02
0.363560012522829E+02
0.368475335383910E+02
0.373599297731690E+02
0.378923207011482E+02
0.384438535178544E+02
0.390136951096951E+02
0.396010346909776E+02
0.402050858863603E+02
0.408250883110573E+02
0.414603087027621E+02
0.421100416589933E+02
0.427736100318420E+02
0.434503650293259E+02
0.441396860690543E+02
0.448203028381740E+02
0.452504379384814E+02
0.441396860690543E+02
0.434481455451724E+02
0.427473959527688E+02
0.420590437941416E+02
0.413837230266104E+02
0.407220982997930E+02
0.400748653321126E+02
0.394427510399707E+02
0.388265133683155E+02
0.382269407664993E+02
0.376448512490925E+02
0.370810909781076E+02
0.365365323013522E+02
0.360120711819339E+02
0.355086239568778E+02
0.350271233690412E+02
0.345685138266418E+02
0.341337458593072E+02
0.337237697590241E+02
0.333395284188745E+02
0.329819494118292E+02
0.326519363855330E+02
0.323503598858502E+02
0.320780477602921E+02
0.318357753301336E+02
0.316242555544145E+02
0.314441294371918E+02
0.312959569484332E+02
0.311802087361459E+02
0.310972589006856E+02
0.310473790805928E+02
0.310307340628511E+02
0.310473790805928E+02
0.310972589006856E+02
0.311802087361459E+02
0.312959569484332E+02
0.314441294371918E+02
0.316242555544145E+02
0.318357753301336E+02
0.320780477602921E+02
0.323503598858502E+02
0.326519363855330E+02
0.329819494118292E+02
0.333395284188745E+02
0.337237697590241E+02
0.341337458593072E+02
0.345685138266418E+02
0.350271233690412E+02
0.355086239568778E+02
0.360120711819339E+02
0.365365323013522E+02
0.370810909781076E+02
0.376448512490925E+02
0.382269407664993E+02
0.388265133683155E+02
0.394427510399707E+02
0.400748653321126E+02
0.407220982997930E+02
0.413837230266104E+02
0.420590437941416E+02
0.427473959527688E+02
0.434481455451724E+02
0.441396860690543E+02
0.445764403501769E+02
0.434503650293259E+02
0.427473959527688E+02
0.420346814105169E+02
0.413341677488711E+02
0.406465017036507E+02
0.399723633666956E+02
0.393124668354541E+02
0.386675606205092E+02
0.380384277539657E+02
0.374258855351484E+02
0.368307848440196E+02
0.362540089475695E+02
0.356964717207095E+02
0.351591152015813E+02
0.346429064024398E+02
0.341488333022257E+02
0.336778999564696E+02
0.332311206751050E+02
0.328095132397807E+02
0.324140911598046E+02
0.320458549999416E+02
0.317057828534451E+02
0.313948200787515E+02
0.311138684663190E+02
0.308637750504546E+02
0.306453208263130E+02
0.304592096707044E+02
0.303060577929228E+02
0.301863840547553E+02
0.301006014941502E+02
0.300490103629436E+02
0.300317929454157E+02
0.300490103629436E+02
0.301006014941502E+02
0.301863840547553E+02
0.303060577929228E+02
0.304592096707044E+02
0.306453208263130E+02
0.308637750504546E+02
0.311138684663190E+02
0.313948200787515E+02
0.317057828534451E+02
0.320458549999416E+02
0.324140911598046E+02
0.328095132397807E+02
0.332311206751050E+02
0.336778999564696E+02
0.341488333022257E+02
0.346429064024398E+02
0.351591152015813E+02
0.356964717207095E+02
0.362540089475695E+02
0.368307848440196E+02
0.374258855351484E+02
0.380384277539657E+02
0.386675606205092E+02
0.393124668354541E+02
0.399723633666956E+02
0.406465017036507E+02
0.413341677488711E+02
0.420346814105169E+02
0.427473959527688E+02
0.434503650293259E+02
0.438941614011158E+02
0.427736100318420E+02
0.420590437941416E+02
0.413341677488711E+02
0.406212707858702E+02
0.399210111542888E+02
0.392340832195151E+02
0.385612184260848E+02
0.379031860301063E+02
0.372607935384372E+02
0.366348867834560E+02
0.360263495540492E+02
0.354361026958547E+02
0.348651025875080E+02
0.343143388954057E+02
0.337848315082811E+02
0.332776265557584E+02
0.327937914231720E+02
0.323344086895032E+02
0.319005689373531E+02
0.314933624142755E+02
0.311138695639031E+02
0.307631504928449E+02
0.304422334941969E+02
0.301521028085487E+02
0.298936858653843E+02
0.296678403075044E+02
0.294753411534871E+02
0.293168684927989E+02
0.291929961296776E+02
0.291041815909367E+02
0.290507578865529E+02
0.290329273596848E+02
0.290507578865529E+02
0.291041815909367E+02
0.291929961296776E+02
0.293168684927989E+02
0.294753411534871E+02
0.296678403075044E+02
0.298936858653843E+02
0.301521028085487E+02
0.304422334941969E+02
0.307631504928449E+02
0.311138695639031E+02
0.314933624142755E+02
0.319005689373531E+02
0.323344086895032E+02
0.327937914231720E+02
0.332776265557584E+02
0.337848315082811E+02
0.343143388954057E+02
0.348651025875080E+02
0.354361026958547E+02
0.360263495540492E+02
0.366348867834560E+02
0.372607935384372E+02
0.379031860301063E+02
0.385612184260848E+02
0.392340832195151E+02
0.399210111542888E+02
0.406212707858702E+02
0.413341677488711E+02
0.420590437941416E+02
0.427736100318420E+02
0.432245436697347E+02
0.421100416589933E+02
0.413837230266104E+02
0.406465017036507E+02
0.399210111542888E+02
0.392079196135714E+02
0.385079342672557E+02
0.378218025704356E+02
0.371503133549307E+02
0.364942976573883E+02
0.358546291894646E+02
0.352322243606450E+02
0.346280417537369E+02
0.340430809435130E+02
0.334783805413074E+02
0.329350153437019E+02
0.324140924631420E+02
0.319167463239122E+02
0.314441324200311E+02
0.309974197538724E+02
0.305777819070872E+02
0.301863867395818E+02
0.298243847680575E+02
0.294928963420165E+02
0.291929978099199E+02
0.289257069475581E+02
0.286919679993391E+02
0.284926367544808E+02
0.283284661365732E+02
0.282000928191901E+02
0.281080253857021E+02
0.280526345237018E+02
0.280341456820583E+02
0.280526345237018E+02
0.281080253857021E+02
0.282000928191901E+02
0.283284661365732E+02
0.284926367544808E+02
0.286919679993391E+02
0.289257069475581E+02
0.291929978099199E+02
0.294928963420165E+02
0.298243847680575E+02
0.301863867395818E+02
0.305777819070872E+02
0.309974197538724E+02
0.314441324200311E+02
0.319167463239122E+02
0.324140924631420E+02
0.329350153437019E+02
0.334783805413074E+02
0.340430809435130E+02
0.346280417537369E+02
0.352322243606450E+02
0.358546291894646E+02
0.364942976573883E+02
0.371503133549307E+02
0.378218025704356E+02
0.385079342672557E+02
0.392079196135714E+02
0.399210111542888E+02
0.406465017036507E+02
0.413837230266104E+02
0.421100416589933E+02
0.425681990023052E+02
0.414603087027621E+02
0.407220982997930E+02
0.399723633666956E+02
0.392340832195151E+02
0.385079342672557E+02
0.377946347495099E+02
0.370949464545539E+02
0.364096762545928E+02
0.357396773855845E+02
0.350858503860534E+02
0.344491435955149E+02
0.338305530990927E+02
0.332311219913280E+02
0.326519388200751E+02
0.320941350620652E+02
0.315588814768521E+02
0.310473831873912E+02
0.305608733456455E+02
0.301006052626473E+02
0.296678429165458E+02
0.292638498010416E+02
0.288898761411234E+02
0.285471445827226E+02
0.282368345555891E+02
0.279600656100463E+02
0.277178801317321E+02
0.275112259353248E+02
0.273409393184759E+02
0.272077292101577E+02
0.271121630638318E+02
0.270546551182448E+02
0.270354575743711E+02
0.270546551182448E+02
0.271121630638318E+02
0.272077292101577E+02
0.273409393184759E+02
0.275112259353248E+02
0.277178801317321E+02
0.279600656100463E+02
0.282368345555891E+02
0.285471445827226E+02
0.288898761411234E+02
0.292638498010416E+02
0.296678429165458E+02
0.301006052626473E+02
0.305608733456455E+02
0.310473831873912E+02
0.315588814768521E+02
0.320941350620652E+02
0.326519388200751E+02
0.332311219913280E+02
0.338305530990927E+02
0.344491435955149E+02
0.350858503860534E+02
0.357396773855845E+02
0.364096762545928E+02
0.370949464545539E+02
0.377946347495099E+02
0.385079342672557E+02
0.392340832195151E+02
0.399723633666956E+02
0.407220982997930E+02
0.414603087027621E+02
0.419257659579409E+02
0.408250883110573E+02
0.400748653321126E+02
0.393124668354541E+02
0.385612184260848E+02
0.378218025704356E+02
0.370949464545539E+02
0.363814241456683E+02
0.356820586099425E+02
0.349977235105677E+02
0.343293446946717E+02
0.336779012604039E+02
0.330444260774211E+02
0.324300056155665E+02
0.318357789188774E+02
0.312629355466512E+02
0.307127122921117E+02
0.301863884846768E+02
0.296852796868201E+02
0.292107296142174E+02
0.287641001415094E+02
0.283467593084816E+02
0.279600673147656E+02
0.276053605857663E+02
0.272839341066324E+02
0.269970223500518E+02
0.267457792595193E+02
0.265312578813417E+02
0.263543903522597E+02
0.262159690302571E+02
0.261166295897232E+02
0.260568368777089E+02
0.260368742401614E+02
0.260568368777089E+02
0.261166295897232E+02
0.262159690302571E+02
0.263543903522597E+02
0.265312578813417E+02
0.267457792595193E+02
0.269970223500518E+02
0.272839341066324E+02
0.276053605857663E+02
0.279600673147656E+02
0.283467593084816E+02
0.287641001415094E+02
0.292107296142174E+02
0.296852796868201E+02
0.301863884846768E+02
0.307127122921117E+02
0.312629355466512E+02
0.318357789188774E+02
0.324300056155665E+02
0.330444260774211E+02
0.336779012604039E+02
0.343293446946717E+02
0.349977235105677E+02
0.356820586099425E+02
0.363814241456683E+02
0.370949464545539E+02
0.378218025704356E+02
0.385612184260848E+02
0.393124668354541E+02
0.400748653321126E+02
0.408250883110573E+02
0.412979098268549E+02
0.402050858863603E+02
0.394427510399707E+02
0.386675606205092E+02
0.379031860301063E+02
0.371503133549307E+02
0.364096762545928E+02
0.356820586099425E+02
0.349682970782495E+02
0.342692834784222E+02
0.335859669105007E+02
0.329193554929168E+02
0.322705175782596E+02
0.316405822841633E+02
0.310307391514941E+02
0.304422367188519E+02
0.298763797827465E+02
0.293345250996011E+02
0.288180752826256E+02
0.283284706578734E+02
0.278671788740879E+02
0.274356821147989E+02
0.270354618423069E+02
0.266679811137476E+02
0.263346646486142E+02
0.260368769903651E+02
0.257758992827750E+02
0.255529053603020E+02
0.253689380123866E+02
0.252248864031181E+02
0.251214656891265E+02
0.250591998627361E+02
0.250384087447531E+02
0.250591998627361E+02
0.251214656891265E+02
0.252248864031181E+02
0.253689380123866E+02
0.255529053603020E+02
0.257758992827750E+02
0.260368769903651E+02
0.263346646486142E+02
0.266679811137476E+02
0.270354618423069E+02
0.274356821147989E+02
0.278671788740879E+02
0.283284706578734E+02
0.288180752826256E+02
0.293345250996011E+02
0.298763797827465E+02
0.304422367188519E+02
0.310307391514941E+02
0.316405822841633E+02
0.322705175782596E+02
0.329193554929168E+02
0.335859669105007E+02
0.342692834784222E+02
0.349682970782495E+02
0.356820586099425E+02
0.364096762545928E+02
0.371503133549307E+02
0.379031860301063E+02
0.386675606205092E+02
0.394427510399707E+02
0.402050858863603E+02
0.406853224026026E+02
0.396010346909776E+02
0.388265133683155E+02
0.380384277539657E+02
0.372607935384372E+02
0.364942976573883E+02
0.357396773855845E+02
0.349977235105677E+02
0.342692834784222E+02
0.335552644352409E+02
0.328566360667638E+02
0.321744331141454E+02
0.315097574160234E+02
0.308637792964629E+02
0.302377380858708E+02
0.296329415292116E+02
0.290507638052136E+02
0.284926418551458E+02
0.279600697046572E+02
0.274545904626693E+02
0.269777857038453E+02
0.265312619925217E+02
0.261166343925485E+02
0.257355069338598E+02
0.253894501741819E+02
0.250799761993987E+02
0.248085116385406E+02
0.245763695114277E+02
0.243847209538728E+02
0.242345680470979E+02
0.241267190835047E+02
0.240617676032490E+02
0.240400764184816E+02
0.240617676032490E+02
0.241267190835047E+02
0.242345680470979E+02
0.243847209538728E+02
0.245763695114277E+02
0.248085116385406E+02
0.250799761993987E+02
0.253894501741819E+02
0.257355069338598E+02
0.261166343925485E+02
0.265312619925217E+02
0.269777857038453E+02
0.274545904626693E+02
0.279600697046572E+02
0.284926418551458E+02
0.290507638052136E+02
0.296329415292116E+02
0.302377380858708E+02
0.308637792964629E+02
0.315097574160234E+02
0.321744331141454E+02
0.328566360667638E+02
0.335552644352409E+02
0.342692834784222E+02
0.349977235105677E+02
0.357396773855845E+02
0.364942976573883E+02
0.372607935384372E+02
0.380384277539657E+02
0.388265133683155E+02
0.396010346909776E+02
0.400887214659883E+02
0.390136951096951E+02
0.382269407664993E+02
0.374258855351484E+02
0.366348867834560E+02
0.358546291894646E+02
0.350858503860534E+02
0.343293446946717E+02
0.335859669105007E+02
0.328566360667638E+02
0.321423390823004E+02
0.314441341683027E+02
0.307631538370918E+02
0.301006073181255E+02
0.294577821447353E+02
0.288360446308012E+02
0.282368389121160E+02
0.276616841863086E+02
0.271121697531724E+02
0.265899474410882E+02
0.260967210135476E+02
0.256342321923807E+02
0.252042430212081E+02
0.248085144325571E+02
0.244487810801305E+02
0.241267227527395E+02
0.238439329882237E+02
0.236018858330353E+02
0.234019020132549E+02
0.232451160534838E+02
0.231324460549865E+02
0.230645678812889E+02
0.230418953693835E+02
0.230645678812889E+02
0.231324460549865E+02
0.232451160534838E+02
0.234019020132549E+02
0.236018858330353E+02
0.238439329882237E+02
0.241267227527395E+02
0.244487810801305E+02
0.248085144325571E+02
0.252042430212081E+02
0.256342321923807E+02
0.260967210135476E+02
0.265899474410882E+02
0.271121697531724E+02
0.276616841863086E+02
0.282368389121160E+02
0.288360446308012E+02
0.294577821447353E+02
0.301006073181255E+02
0.307631538370918E+02
0.314441341683027E+02
0.321423390823004E+02
0.328566360667638E+02
0.335859669105007E+02
0.343293446946717E+02
0.350858503860534E+02
0.358546291894646E+02
0.366348867834560E+02
0.374258855351484E+02
0.382269407664993E+02
0.390136951096951E+02
0.395088499355429E+02
0.384438535178544E+02
0.376448512490925E+02
0.368307848440196E+02
0.360263495540492E+02
0.352322243606450E+02
0.344491435955149E+02
0.336779012604039E+02
0.329193554929168E+02
0.321744331141454E+02
0.314441341683027E+02
0.307295363330279E+02
0.300317990408917E+02
0.293521671075729E+02
0.286919736103474E+02
0.280526417029088E+02
0.274356849912904E+02
0.268427060345694E+02
0.262753924790195E+02
0.257355102938388E+02
0.252248935616278E+02
0.247454303009868E+02
0.242990438770330E+02
0.238876697030689E+02
0.235132271644531E+02
0.231775870079805E+02
0.228825348287859E+02
0.226297317278706E+02
0.224206736644343E+02
0.222566514292775E+02
0.221387134496839E+02
0.220676337355357E+02
0.220438871416300E+02
0.220676337355357E+02
0.221387134496839E+02
0.222566514292775E+02
0.224206736644343E+02
0.226297317278706E+02
0.228825348287859E+02
0.231775870079805E+02
0.235132271644531E+02
0.238876697030689E+02
0.242990438770330E+02
0.247454303009868E+02
0.252248935616278E+02
0.257355102938388E+02
0.262753924790195E+02
0.268427060345694E+02
0.274356849912904E+02
0.280526417029088E+02
0.286919736103474E+02
0.293521671075729E+02
0.300317990408917E+02
0.307295363330279E+02
0.314441341683027E+02
0.321744331141454E+02
0.329193554929168E+02
0.336779012604039E+02
0.344491435955149E+02
0.352322243606450E+02
0.360263495540492E+02
0.368307848440196E+02
0.376448512490925E+02
0.384438535178544E+02
0.389464746374678E+02
0.378923207011482E+02
0.370810909781076E+02
0.362540089475695E+02
0.354361026958547E+02
0.346280417537369E+02
0.338305530990927E+02
0.330444260774211E+02
0.322705175782596E+02
0.315097574160234E+02
0.307631538370918E+02
0.300317990408917E+02
0.293168745600897E+02
0.286196562927975E+02
0.279415189173197E+02
0.272839393476122E+02
0.266484988067405E+02
0.260368830096066E+02
0.254508798611335E+02
0.248923740014861E+02
0.243633374794398E+02
0.238658158266847E+02
0.234019088613778E+02
0.229737456920838E+02
0.225834536447785E+02
0.222331212094367E+02
0.219247555973202E+02
0.216602360910045E+02
0.214412650036098E+02
0.212693186600672E+02
0.211456012691193E+02
0.210710047642528E+02
0.210460775704020E+02
0.210710047642528E+02
0.211456012691193E+02
0.212693186600672E+02
0.214412650036098E+02
0.216602360910045E+02
0.219247555973202E+02
0.222331212094367E+02
0.225834536447785E+02
0.229737456920838E+02
0.234019088613778E+02
0.238658158266847E+02
0.243633374794398E+02
0.248923740014861E+02
0.254508798611335E+02
0.260368830096066E+02
0.266484988067405E+02
0.272839393476122E+02
0.279415189173197E+02
0.286196562927975E+02
0.293168745600897E+02
0.300317990408917E+02
0.307631538370918E+02
0.315097574160234E+02
0.322705175782596E+02
0.330444260774211E+02
0.338305530990927E+02
0.346280417537369E+02
0.354361026958547E+02
0.362540089475695E+02
0.370810909781076E+02
0.378923207011482E+02
0.384023846469867E+02
0.373599297731690E+02
0.365365323013522E+02
0.356964717207095E+02
0.348651025875080E+02
0.340430809435130E+02
0.332311219913280E+02
0.324300056155665E+02
0.316405822841633E+02
0.308637792964629E+02
0.301006073181255E+02
0.293521671075729E+02
0.286196562927975E+02
0.279043759989871E+02
0.272077370549147E+02
0.265312654183435E+02
0.258766063579857E+02
0.252455268140634E+02
0.246399152366854E+02
0.240617780810266E+02
0.235132320364851E+02
0.229964910063630E+02
0.225138468650016E+02
0.220676431360311E+02
0.216602409950653E+02
0.212939774328341E+02
0.209711160327620E+02
0.206937916015802E+02
0.204639507807823E+02
0.202832916501496E+02
0.201532060607165E+02
0.200747288352954E+02
0.200484979050924E+02
0.200747288352954E+02
0.201532060607165E+02
0.202832916501496E+02
0.204639507807823E+02
0.206937916015802E+02
0.209711160327620E+02
0.212939774328341E+02
0.216602409950653E+02
0.220676431360311E+02
0.225138468650016E+02
0.229964910063630E+02
0.235132320364851E+02
0.240617780810266E+02
0.246399152366854E+02
0.252455268140634E+02
0.258766063579857E+02
0.265312654183435E+02
0.272077370549147E+02
0.279043759989871E+02
0.286196562927975E+02
0.293521671075729E+02
0.301006073181255E+02
0.308637792964629E+02
0.316405822841633E+02
0.324300056155665E+02
0.332311219913280E+02
0.340430809435130E+02
0.348651025875080E+02
0.356964717207095E+02
0.365365323013522E+02
0.373599297731690E+02
0.378773891535127E+02
0.368475335383910E+02
0.360120711819339E+02
0.351591152015813E+02
0.343143388954057E+02
0.334783805413074E+02
0.326519388200751E+02
0.318357789188774E+02
0.310307391514941E+02
0.302377380858708E+02
0.294577821447353E+02
0.286919736103474E+02
0.279415189173197E+02
0.272077370549147E+02
0.264920678192197E+02
0.257960795533254E+02
0.251214758882162E+02
0.244701008485812E+02
0.238439415197055E+02
0.232451272929465E+02
0.226759245347876E+02
0.221387253850837E+02
0.216360293227688E+02
0.211704161926141E+02
0.207445096230233E+02
0.203609302391396E+02
0.200222388267350E+02
0.197308706296216E+02
0.194890632023261E+02
0.192987815461823E+02
0.191616454090622E+02
0.190788643594046E+02
0.190511863044103E+02
0.190788643594046E+02
0.191616454090622E+02
0.192987815461823E+02
0.194890632023261E+02
0.197308706296216E+02
0.200222388267350E+02
0.203609302391396E+02
0.207445096230233E+02
0.211704161926141E+02
0.216360293227688E+02
0.221387253850837E+02
0.226759245347876E+02
0.232451272929465E+02
0.238439415197055E+02
0.244701008485812E+02
0.251214758882162E+02
0.257960795533254E+02
0.264920678192197E+02
0.272077370549147E+02
0.279415189173197E+02
0.286919736103474E+02
0.294577821447353E+02
0.302377380858708E+02
0.310307391514941E+02
0.318357789188774E+02
0.326519388200751E+02
0.334783805413074E+02
0.343143388954057E+02
0.351591152015813E+02
0.360120711819339E+02
0.368475335383910E+02
0.373723148043118E+02
0.363560012522829E+02
0.355086239568778E+02
0.346429064024398E+02
0.337848315082811E+02
0.329350153437019E+02
0.320941350620652E+02
0.312629355466512E+02
0.304422367188519E+02
0.296329415292116E+02
0.288360446308012E+02
0.280526417029088E+02
0.272839393476122E+02
0.265312654183435E+02
0.257960795533254E+02
0.250799835726738E+02
0.243847312512237E+02
0.237122367963384E+02
0.230645811408740E+02
0.224440149117595E+02
0.218529566694911E+02
0.212939847623600E+02
0.207698209488669E+02
0.202833038810466E+02
0.198373506983143E+02
0.194349054537274E+02
0.190788739685305E+02
0.187720460269070E+02
0.185170075323337E+02
0.183160471728818E+02
0.181710639665791E+02
0.180834833553583E+02
0.180541898552621E+02
0.180834833553583E+02
0.181710639665791E+02
0.183160471728818E+02
0.185170075323337E+02
0.187720460269070E+02
0.190788739685305E+02
0.194349054537274E+02
0.198373506983143E+02
0.202833038810466E+02
0.207698209488669E+02
0.212939847623600E+02
0.218529566694911E+02
0.224440149117595E+02
0.230645811408740E+02
0.237122367963384E+02
0.243847312512237E+02
0.250799835726738E+02
0.257960795533254E+02
0.265312654183435E+02
0.272839393476122E+02
0.280526417029088E+02
0.288360446308012E+02
0.296329415292116E+02
0.304422367188519E+02
0.312629355466512E+02
0.320941350620652E+02
0.329350153437019E+02
0.337848315082811E+02
0.346429064024398E+02
0.355086239568778E+02
0.363560012522829E+02
0.368880024858216E+02
0.358862147371361E+02
0.350271233690412E+02
0.341488333022257E+02
0.332776265557584E+02
0.324140924631420E+02
0.315588814768521E+02
0.307127122921117E+02
0.298763797827465E+02
0.290507638052136E+02
0.282368389121160E+02
0.274356849912904E+02
0.266484988067405E+02
0.258766063579857E+02
0.251214758882162E+02
0.243847312512237E+02
0.236681651838176E+02
0.229737518159334E+02
0.223036574785690E+02
0.216602485390462E+02
0.210460946132453E+02
0.204639651020420E+02
0.199168166265881E+02
0.194077686806615E+02
0.189400648025714E+02
0.185170169507288E+02
0.181419317105135E+02
0.178180185885047E+02
0.175482829709752E+02
0.173354091462723E+02
0.171816416728900E+02
0.170886756478045E+02
0.170575673424664E+02
0.170886756478045E+02
0.171816416728900E+02
0.173354091462723E+02
0.175482829709752E+02
0.178180185885047E+02
0.181419317105135E+02
0.185170169507288E+02
0.189400648025714E+02
0.194077686806615E+02
0.199168166265881E+02
0.204639651020420E+02
0.210460946132453E+02
0.216602485390462E+02
0.223036574785690E+02
0.229737518159334E+02
0.236681651838176E+02
0.243847312512237E+02
0.251214758882162E+02
0.258766063579857E+02
0.266484988067405E+02
0.274356849912904E+02
0.282368389121160E+02
0.290507638052136E+02
0.298763797827465E+02
0.307127122921117E+02
0.315588814768521E+02
0.324140924631420E+02
0.332776265557584E+02
0.341488333022257E+02
0.350271233690412E+02
0.358862147371361E+02
0.364253035088689E+02
0.354390638223776E+02
0.345685138266418E+02
0.336778999564696E+02
0.327937914231720E+02
0.319167463239122E+02
0.310473831873912E+02
0.301863884846768E+02
0.293345250996011E+02
0.284926418551458E+02
0.276616841863086E+02
0.268427060345694E+02
0.260368830096066E+02
0.252455268140634E+02
0.244701008485812E+02
0.237122367963384E+02
0.229737518159334E+02
0.222566657337536E+02
0.215632173068711E+02
0.208958782129727E+02
0.202573629119920E+02
0.196506319309217E+02
0.190788854973186E+02
0.185455438862891E+02
0.180542105135296E+02
0.176086139373678E+02
0.172125258111561E+02
0.168696537279505E+02
0.165835109676903E+02
0.163572692505665E+02
0.161936051430780E+02
0.160945547167792E+02
0.160613931161008E+02
0.160945547167792E+02
0.161936051430780E+02
0.163572692505665E+02
0.165835109676903E+02
0.168696537279505E+02
0.172125258111561E+02
0.176086139373678E+02
0.180542105135296E+02
0.185455438862891E+02
0.190788854973186E+02
0.196506319309217E+02
0.202573629119920E+02
0.208958782129727E+02
0.215632173068711E+02
0.222566657337536E+02
0.229737518159334E+02
0.237122367963384E+02
0.244701008485812E+02
0.252455268140634E+02
0.260368830096066E+02
0.268427060345694E+02
0.276616841863086E+02
0.284926418551458E+02
0.293345250996011E+02
0.301863884846768E+02
0.310473831873912E+02
0.319167463239122E+02
0.327937914231720E+02
0.336778999564696E+02
0.345685138266418E+02
0.354390638223776E+02
0.359850751740687E+02
0.350154410919868E+02
0.341337458593072E+02
0.332311206751050E+02
0.323344086895032E+02
0.314441324200311E+02
0.305608733456455E+02
0.296852796868201E+02
0.288180752826256E+02
0.279600697046572E+02
0.271121697531724E+02
0.262753924790195E+02
0.254508798611335E+02
0.246399152366854E+02
0.238439415197055E+02
0.230645811408740E+02
0.223036574785690E+02
0.215632173068711E+02
0.208455534336430E+02
0.201532262130557E+02
0.194890819685258E+02
0.188562655465739E+02
0.182582232678667E+02
0.176986915410949E+02
0.171816655500757E+02
0.167113420366548E+02
0.162920307378450E+02
0.159280310246281E+02
0.156234741681297E+02
0.153821374852261E+02
0.152072437371296E+02
0.151012660078553E+02
0.150657625989581E+02
0.151012660078553E+02
0.152072437371296E+02
0.153821374852261E+02
0.156234741681297E+02
0.159280310246281E+02
0.162920307378450E+02
0.167113420366548E+02
0.171816655500757E+02
0.176986915410949E+02
0.182582232678667E+02
0.188562655465739E+02
0.194890819685258E+02
0.201532262130557E+02
0.208455534336430E+02
0.215632173068711E+02
0.223036574785690E+02
0.230645811408740E+02
0.238439415197055E+02
0.246399152366854E+02
0.254508798611335E+02
0.262753924790195E+02
0.271121697531724E+02
0.279600697046572E+02
0.288180752826256E+02
0.296852796868201E+02
0.305608733456455E+02
0.314441324200311E+02
0.323344086895032E+02
0.332311206751050E+02
0.341337458593072E+02
0.350154410919868E+02
0.355681757069396E+02
0.346162359393642E+02
0.337237697590241E+02
0.328095132397807E+02
0.319005689373531E+02
0.309974197538724E+02
0.301006052626473E+02
0.292107296142174E+02
0.283284706578734E+02
0.274545904626693E+02
0.265899474410882E+02
0.257355102938388E+02
0.248923740014861E+02
0.240617780810266E+02
0.232451272929465E+02
0.224440149117595E+02
0.216602485390462E+02
0.208958782129727E+02
0.201532262130557E+02
0.194349174253112E+02
0.187439083674404E+02
0.180835119288770E+02
0.174574135381133E+02
0.168696728819475E+02
0.163247036530369E+02
0.158272224877198E+02
0.153821579417255E+02
0.149945119598197E+02
0.146691708141125E+02
0.144106705100876E+02
0.142229327005028E+02
0.141089989970870E+02
0.140708003056715E+02
0.141089989970870E+02
0.142229327005028E+02
0.144106705100876E+02
0.146691708141125E+02
0.149945119598197E+02
0.153821579417255E+02
0.158272224877198E+02
0.163247036530369E+02
0.168696728819475E+02
0.174574135381133E+02
0.180835119288770E+02
0.187439083674404E+02
0.194349174253112E+02
0.201532262130557E+02
0.208958782129727E+02
0.216602485390462E+02
0.224440149117595E+02
0.232451272929465E+02
0.240617780810266E+02
0.248923740014861E+02
0.257355102938388E+02
0.265899474410882E+02
0.274545904626693E+02
0.283284706578734E+02
0.292107296142174E+02