<?xml version="1.0"?>
<VTKFile type="RectilinearGrid" version="0.1" byte_order="LittleEndian">
<RectilinearGrid WholeExtent="0   63    0   63    0    3">
<Piece Extent="0   15   15   31    0    3">
<Coordinates>
<DataArray Name="x" type="Float32" format="ascii">
0.000000000000000E+00
0.100000000000000E+00
0.200000000000000E+00
0.300000000000000E+00
0.400000000000000E+00
0.500000000000000E+00
0.600000000000000E+00
0.700000000000000E+00
0.800000000000000E+00
0.900000000000000E+00
0.100000000000000E+01
0.110000000000000E+01
0.120000000000000E+01
0.130000000000000E+01
0.140000000000000E+01
0.150000000000000E+01
</DataArray>
<DataArray Name="y" type="Float32" format="ascii">
0.150000000000000E+01
0.160000000000000E+01
0.170000000000000E+01
0.180000000000000E+01
0.190000000000000E+01
0.200000000000000E+01
0.210000000000000E+01
0.220000000000000E+01
0.230000000000000E+01
0.240000000000000E+01
0.250000000000000E+01
0.260000000000000E+01
0.270000000000000E+01
0.280000000000000E+01
0.290000000000000E+01
0.300000000000000E+01
0.310000000000000E+01
</DataArray>
<DataArray Name="z" type="Float32" format="ascii">
0.000000000000000E+00
0.100000000000000E+00
0.200000000000000E+00
0.300000000000000E+00
</DataArray>
</Coordinates>
<PointData Scalars="c">
<DataArray type="Float32" Name="c" format="ascii">
0.300658082966887E+02
0.300146255064250E+02
0.299129070080314E+02
0.297619338256911E+02
0.295635951549499E+02
0.293203509496024E+02
0.290351842738146E+02
0.287115451636048E+02
0.283532879776929E+02
0.279646043430434E+02
0.275499538131647E+02
0.271139942632785E+02
0.266615138587492E+02
0.261973661702744E+02
0.257264096938066E+02
0.252534526894319E+02
0.296741861937902E+02
0.296221174194085E+02
0.295186341260510E+02
0.293650316534965E+02
0.291632205941682E+02
0.289156892903709E+02
0.286254560698772E+02
0.282960129653767E+02
0.279312628982562E+02
0.275354524309396E+02
0.271131022027015E+02
0.266689370675287E+02
0.262078177624016E+02
0.257346756692147E+02
0.252544519162646E+02
0.247720417205639E+02
0.292908668478409E+02
0.292379166700126E+02
0.291326776057530E+02
0.289764590404728E+02
0.287711925698781E+02
0.285193944207906E+02
0.282241175871913E+02
0.278888954278630E+02
0.275176787059034E+02
0.271147681724987E+02
0.266847448058953E+02
0.262323997177180E+02
0.257626655460775E+02
0.252805508874780E+02
0.247910790005277E+02
0.242992316689047E+02
0.289192742198395E+02
0.288654557405096E+02
0.287584869073427E+02
0.285996907522854E+02
0.283910192872804E+02
0.281350158621897E+02
0.278347672186823E+02
0.274938469867938E+02
0.271162526036132E+02
0.267063377539474E+02
0.262687424391646E+02
0.258083226791537E+02
0.253300816571116E+02
0.248391038471876E+02
0.243404933443197E+02
0.238393172692475E+02
0.285626078065950E+02
0.285079426494423E+02
0.283992870319618E+02
0.282379771117383E+02
0.280259845470367E+02
0.277658788051663E+02
0.274607791513754E+02
0.271142980648254E+02
0.267304780597115E+02
0.263137240082094E+02
0.258687330660607E+02
0.254004241978569E+02
0.249138691013662E+02
0.244142260583438E+02
0.239066779169541E+02
0.233963750638461E+02
0.282238289267257E+02
0.281683471545550E+02
0.280580645588783E+02
0.278943297883403E+02
0.276791332065466E+02
0.274150691635734E+02
0.271052879362357E+02
0.267534390830626E+02
0.263636081901551E+02
0.259402491009090E+02
0.254881137244962E+02
0.250121814117872E+02
0.245175896872345E+02
0.240095678511814E+02
0.234933746431958E+02
0.229742408092823E+02
0.279056520728497E+02
0.278493920163034E+02
0.277375587319257E+02
0.275715126198877E+02
0.273532616498295E+02
0.270854236071857E+02
0.267711779998818E+02
0.264142093703689E+02
0.260186439868708E+02
0.255889820027243E+02
0.251300271724073E+02
0.246468161042471E+02
0.241445488272621E+02
0.236285221734753E+02
0.231040671516999E+02
0.225764911404672E+02
0.276105405189334E+02
0.275535485117402E+02
0.274402567866660E+02
0.272720366600675E+02
0.270509124634201E+02
0.267795237747562E+02
0.264610773050931E+02
0.260992901835351E+02
0.256983266123218E+02
0.252627299763273E+02
0.247973524891103E+02
0.243072843466990E+02
0.237977841555030E+02
0.232742121226614E+02
0.227419671704399E+02
0.222064287874369E+02
0.273407053434400E+02
0.272830353607125E+02
0.271683926828015E+02
0.269981586205140E+02
0.267743724919598E+02
0.264996938477624E+02
0.261773543484299E+02
0.258111010360744E+02
0.254051329689664E+02
0.249640332989326E+02
0.244926988671842E+02
0.239962692810669E+02
0.234800572273021E+02
0.229494814973871E+02
0.224100038728623E+02
0.218670706688545E+02
0.270981070445367E+02
0.270398202423563E+02
0.269239484232935E+02
0.267518818940112E+02
0.265256734672028E+02
0.262480006874175E+02
0.259221177082622E+02
0.255517985615539E+02
0.251412737840582E+02
0.246951624773703E+02
0.242184018701864E+02
0.237161763370997E+02
0.231938476191718E+02
0.226568877099649E+02
0.221108155416112E+02
0.215611382558272E+02
0.268844589740093E+02
0.268256231306602E+02
0.267086571932108E+02
0.265349593982741E+02
0.263065944584718E+02
0.260262557938126E+02
0.256972174151773E+02
0.253232771988451E+02
0.249086935149102E+02
0.244581172808923E+02
0.239765215038164E+02
0.234691302571015E+02
0.229413488279498E+02
0.223986964878639E+02
0.218467430088076E+02
0.212910496975339E+02
0.267012318918858E+02
0.266419207535226E+02
0.265240076276017E+02
0.263488975569363E+02
0.261186654710278E+02
0.258360184260383E+02
0.255042474985837E+02
0.251271710707084E+02
0.247090714662924E+02
0.242546270062884E+02
0.237688415406515E+02
0.232569733962808E+02
0.227244654681016E+02
0.221768778960568E+02
0.216198244397886E+02
0.210589133125430E+02
0.265496590344789E+02
0.264899515706388E+02
0.263712486089817E+02
0.261949608262593E+02
0.259631716114942E+02
0.256785993157941E+02
0.253445491581792E+02
0.249648565233645E+02
0.245438236094473E+02
0.240861514894874E+02
0.235968696401524E+02
0.230812648707023E+02
0.225448113721031E+02
0.219931033206080E+02
0.214317911384333E+02
0.208665221637040E+02
0.264307411860671E+02
0.263707207631193E+02
0.262513940927281E+02
0.260741762739686E+02
0.258411573376179E+02
0.255550645054535E+02
0.252192141077851E+02
0.248374548939715E+02
0.244141046919731E+02
0.239538824781329E+02
0.234618379065453E+02
0.229432802263900E+02
0.224037083010968E+02
0.218487431568898E+02
0.212840641559819E+02
0.207153495390780E+02
0.263452513417712E+02
0.262850048250064E+02
0.261652275557719E+02
0.259873378134766E+02
0.257534304061768E+02
0.254662389376624E+02
0.251290877346500E+02
0.247458351679351E+02
0.243208103221338E+02
0.238587450731377E+02
0.233647036198207E+02
0.228440113947733E+02
0.223021850635795E+02
0.217448650352060E+02
0.211777515733900E+02
0.206065452481847E+02
0.262937386413765E+02
0.262333554388173E+02
0.261133057554880E+02
0.259350097875821E+02
0.257005652227565E+02
0.254127095123068E+02
0.250747718046899E+02
0.246906162736888E+02
0.242645787949713E+02
0.238013990288937E+02
0.233061499543582E+02
0.227841667762961E+02
0.222409769136305E+02
0.216822324872518E+02
0.211136463946053E+02
0.205409327067001E+02
0.262765313380539E+02
0.262161024010833E+02
0.260959615687976E+02
0.259175296777462E+02
0.256829053776547E+02
0.253948274053674E+02
0.250566265205693E+02
0.246721688363954E+02
0.242457924983807E+02
0.237822397691730E+02
0.232865865632337E+02
0.227641713533572E+02
0.222205251549672E+02
0.216613040067023E+02
0.210922250327857E+02
0.205190068218620E+02
0.300658082966887E+02
0.300146255064250E+02
0.299129070080314E+02
0.297619338256911E+02
0.295635951549499E+02
0.293203509496024E+02
0.290351842738146E+02
0.287115451636048E+02
0.283532879776929E+02
0.279646043430434E+02
0.275499538131647E+02
0.271139942632785E+02
0.266615138587492E+02
0.261973661702744E+02
0.257264096938066E+02
0.252534526894319E+02
0.296741861937902E+02
0.296221174194085E+02
0.295186341260510E+02
0.293650316534965E+02
0.291632205941682E+02
0.289156892903709E+02
0.286254560698772E+02
0.282960129653767E+02
0.279312628982562E+02
0.275354524309396E+02
0.271131022027015E+02
0.266689370675287E+02
0.262078177624016E+02
0.257346756692147E+02
0.252544519162646E+02
0.247720417205639E+02
0.292908668478409E+02
0.292379166700126E+02
0.291326776057530E+02
0.289764590404728E+02
0.287711925698781E+02
0.285193944207906E+02
0.282241175871913E+02
0.278888954278630E+02
0.275176787059034E+02
0.271147681724987E+02
0.266847448058953E+02
0.262323997177180E+02
0.257626655460775E+02
0.252805508874780E+02
0.247910790005277E+02
0.242992316689047E+02
0.289192742198395E+02
0.288654557405096E+02
0.287584869073427E+02
0.285996907522854E+02
0.283910192872804E+02
0.281350158621897E+02
0.278347672186823E+02
0.274938469867938E+02
0.271162526036132E+02
0.267063377539474E+02
0.262687424391646E+02
0.258083226791537E+02
0.253300816571116E+02
0.248391038471876E+02
0.243404933443197E+02
0.238393172692475E+02
0.285626078065950E+02
0.285079426494423E+02
0.283992870319618E+02
0.282379771117383E+02
0.280259845470367E+02
0.277658788051663E+02
0.274607791513754E+02
0.271142980648254E+02
0.267304780597115E+02
0.263137240082094E+02
0.258687330660607E+02
0.254004241978569E+02
0.249138691013662E+02
0.244142260583438E+02
0.239066779169541E+02
0.233963750638461E+02
0.282238289267257E+02
0.281683471545550E+02
0.280580645588783E+02
0.278943297883403E+02
0.276791332065466E+02
0.274150691635734E+02
0.271052879362357E+02
0.267534390830626E+02
0.263636081901551E+02
0.259402491009090E+02
0.254881137244962E+02
0.250121814117872E+02
0.245175896872345E+02
0.240095678511814E+02
0.234933746431958E+02
0.229742408092823E+02
0.279056520728497E+02
0.278493920163034E+02
0.277375587319257E+02
0.275715126198877E+02
0.273532616498295E+02
0.270854236071857E+02
0.267711779998818E+02
0.264142093703689E+02
0.260186439868708E+02
0.255889820027243E+02
0.251300271724073E+02
0.246468161042471E+02
0.241445488272621E+02
0.236285221734753E+02
0.231040671516999E+02
0.225764911404672E+02
0.276105405189334E+02
0.275535485117402E+02
0.274402567866660E+02
0.272720366600675E+02
0.270509124634201E+02
0.267795237747562E+02
0.264610773050931E+02
0.260992901835351E+02
0.256983266123218E+02
0.252627299763273E+02
0.247973524891103E+02
0.243072843466990E+02
0.237977841555030E+02
0.232742121226614E+02
0.227419671704399E+02
0.222064287874369E+02
0.273407053434400E+02
0.272830353607125E+02
0.271683926828015E+02
0.269981586205140E+02
0.267743724919598E+02
0.264996938477624E+02
0.261773543484299E+02
0.258111010360744E+02
0.254051329689664E+02
0.249640332989326E+02
0.244926988671842E+02
0.239962692810669E+02
0.234800572273021E+02
0.229494814973871E+02
0.224100038728623E+02
0.218670706688545E+02
0.270981070445367E+02
0.270398202423563E+02
0.269239484232935E+02
0.267518818940112E+02
0.265256734672028E+02
0.262480006874175E+02
0.259221177082622E+02
0.255517985615539E+02
0.251412737840582E+02
0.246951624773703E+02
0.242184018701864E+02
0.237161763370997E+02
0.231938476191718E+02
0.226568877099649E+02
0.221108155416112E+02
0.215611382558272E+02
0.268844589740093E+02
0.268256231306602E+02
0.267086571932108E+02
0.265349593982741E+02
0.263065944584718E+02
0.260262557938126E+02
0.256972174151773E+02
0.253232771988451E+02
0.249086935149102E+02
0.244581172808923E+02
0.239765215038164E+02
0.234691302571015E+02
0.229413488279498E+02
0.223986964878639E+02
0.218467430088076E+02
0.212910496975339E+02
0.267012318918858E+02
0.266419207535226E+02
0.265240076276017E+02
0.263488975569363E+02
0.261186654710278E+02
0.258360184260383E+02
0.255042474985837E+02
0.251271710707084E+02
0.247090714662924E+02
0.242546270062884E+02
0.237688415406515E+02
0.232569733962808E+02
0.227244654681016E+02
0.221768778960568E+02
0.216198244397886E+02
0.210589133125430E+02
0.265496590344789E+02
0.264899515706388E+02
0.263712486089817E+02
0.261949608262593E+02
0.259631716114942E+02
0.256785993157941E+02
0.253445491581792E+02
0.249648565233645E+02
0.245438236094473E+02
0.240861514894874E+02
0.235968696401524E+02
0.230812648707023E+02
0.225448113721031E+02
0.219931033206080E+02
0.214317911384333E+02
0.208665221637040E+02
0.264307411860671E+02
0.263707207631193E+02
0.262513940927281E+02
0.260741762739686E+02
0.258411573376179E+02
0.255550645054535E+02
0.252192141077851E+02
0.248374548939715E+02
0.244141046919731E+02
0.239538824781329E+02
0.234618379065453E+02
0.229432802263900E+02
0.224037083010968E+02
0.218487431568898E+02
0.212840641559819E+02
0.207153495390780E+02
0.263452513417712E+02
0.262850048250064E+02
0.261652275557719E+02
0.259873378134766E+02
0.257534304061768E+02
0.254662389376624E+02
0.251290877346500E+02
0.247458351679351E+02
0.243208103221338E+02
0.238587450731377E+02
0.233647036198207E+02
0.228440113947733E+02
0.223021850635795E+02
0.217448650352060E+02
0.211777515733900E+02
0.206065452481847E+02
0.262937386413765E+02
0.262333554388173E+02
0.261133057554880E+02
0.259350097875821E+02
0.257005652227565E+02
0.254127095123068E+02
0.250747718046899E+02
0.246906162736888E+02
0.242645787949713E+02
0.238013990288937E+02
0.233061499543582E+02
0.227841667762961E+02
0.222409769136305E+02
0.216822324872518E+02
0.211136463946053E+02
0.205409327067001E+02
0.262765313380539E+02
0.262161024010833E+02
0.260959615687976E+02
0.259175296777462E+02
0.256829053776547E+02
0.253948274053674E+02
0.250566265205693E+02
0.246721688363954E+02
0.242457924983807E+02
0.237822397691730E+02
0.232865865632337E+02
0.227641713533572E+02
0.222205251549672E+02
0.216613040067023E+02
0.210922250327857E+02
0.205190068218620E+02
0.300658082966887E+02
0.300146255064250E+02
0.299129070080314E+02
0.297619338256911E+02
0.295635951549499E+02
0.293203509496024E+02
0.290351842738146E+02
0.287115451636048E+02
0.283532879776929E+02
0.279646043430434E+02
0.275499538131647E+02
0.271139942632785E+02
0.266615138587492E+02
0.261973661702744E+02
0.257264096938066E+02
0.252534526894319E+02
0.296741861937902E+02
0.296221174194085E+02
0.295186341260510E+02
0.293650316534965E+02
0.291632205941682E+02
0.289156892903709E+02
0.286254560698772E+02
0.282960129653767E+02
0.279312628982562E+02
0.275354524309396E+02
0.271131022027015E+02
0.266689370675287E+02
0.262078177624016E+02
0.257346756692147E+02
0.252544519162646E+02
0.247720417205639E+02
0.292908668478409E+02
0.292379166700126E+02
0.291326776057530E+02
0.289764590404728E+02
0.287711925698781E+02
0.285193944207906E+02
0.282241175871913E+02
0.278888954278630E+02
0.275176787059034E+02
0.271147681724987E+02
0.266847448058953E+02
0.262323997177180E+02
0.257626655460775E+02
0.252805508874780E+02
0.247910790005277E+02
0.242992316689047E+02
0.289192742198395E+02
0.288654557405096E+02
0.287584869073427E+02
0.285996907522854E+02
0.283910192872804E+02
0.281350158621897E+02
0.278347672186823E+02
0.274938469867938E+02
0.271162526036132E+02
0.267063377539474E+02
0.262687424391646E+02
0.258083226791537E+02
0.253300816571116E+02
0.248391038471876E+02
0.243404933443197E+02
0.238393172692475E+02
0.285626078065950E+02
0.285079426494423E+02
0.283992870319618E+02
0.282379771117383E+02
0.280259845470367E+02
0.277658788051663E+02
0.274607791513754E+02
0.271142980648254E+02
0.267304780597115E+02
0.263137240082094E+02
0.258687330660607E+02
0.254004241978569E+02
0.249138691013662E+02
0.244142260583438E+02
0.239066779169541E+02
0.233963750638461E+02
0.282238289267257E+02
0.281683471545550E+02
0.280580645588783E+02
0.278943297883403E+02
0.276791332065466E+02
0.274150691635734E+02
0.271052879362357E+02
0.267534390830626E+02
0.263636081901551E+02
0.259402491009090E+02
0.254881137244962E+02
0.250121814117872E+02
0.245175896872345E+02
0.240095678511814E+02
0.234933746431958E+02
0.229742408092823E+02
0.279056520728497E+02
0.278493920163034E+02
0.277375587319257E+02
0.275715126198877E+02
0.273532616498295E+02
0.270854236071857E+02
0.267711779998818E+02
0.264142093703689E+02
0.260186439868708E+02
0.255889820027243E+02
0.251300271724073E+02
0.246468161042471E+02
0.241445488272621E+02
0.236285221734753E+02
0.231040671516999E+02
0.225764911404672E+02
0.276105405189334E+02
0.275535485117402E+02
0.274402567866660E+02
0.272720366600675E+02
0.270509124634201E+02
0.267795237747562E+02
0.264610773050931E+02
0.260992901835351E+02
0.256983266123218E+02
0.252627299763273E+02
0.247973524891103E+02
0.243072843466990E+02
0.237977841555030E+02
0.232742121226614E+02
0.227419671704399E+02
0.222064287874369E+02
0.273407053434400E+02
0.272830353607125E+02
0.271683926828015E+02
0.269981586205140E+02
0.267743724919598E+02
0.264996938477624E+02
0.261773543484299E+02
0.258111010360744E+02
0.254051329689664E+02
0.249640332989326E+02
0.244926988671842E+02
0.239962692810669E+02
0.234800572273021E+02
0.229494814973871E+02
0.224100038728623E+02
0.218670706688545E+02
0.270981070445367E+02
0.270398202423563E+02
0.269239484232935E+02
0.267518818940112E+02
0.265256734672028E+02
0.262480006874175E+02
0.259221177082622E+02
0.255517985615539E+02
0.251412737840582E+02
0.246951624773703E+02
0.242184018701864E+02
0.237161763370997E+02
0.231938476191718E+02
0.226568877099649E+02
0.221108155416112E+02
0.215611382558272E+02
0.268844589740093E+02
0.268256231306602E+02
0.267086571932108E+02
0.265349593982741E+02
0.263065944584718E+02
0.260262557938126E+02
0.256972174151773E+02
0.253232771988451E+02
0.249086935149102E+02
0.244581172808923E+02
0.239765215038164E+02
0.234691302571015E+02
0.229413488279498E+02
0.223986964878639E+02
0.218467430088076E+02
0.212910496975339E+02
0.267012318918858E+02
0.266419207535226E+02
0.265240076276017E+02
0.263488975569363E+02
0.261186654710278E+02
0.258360184260383E+02
0.255042474985837E+02
0.251271710707084E+02
0.247090714662924E+02
0.242546270062884E+02
0.237688415406515E+02
0.232569733962808E+02
0.227244654681016E+02
0.221768778960568E+02
0.216198244397886E+02
0.210589133125430E+02
0.265496590344789E+02
0.264899515706388E+02
0.263712486089817E+02
0.261949608262593E+02
0.259631716114942E+02
0.256785993157941E+02
0.253445491581792E+02
0.249648565233645E+02
0.245438236094473E+02
0.240861514894874E+02
0.235968696401524E+02
0.230812648707023E+02
0.225448113721031E+02
0.219931033206080E+02
0.214317911384333E+02
0.208665221637040E+02
0.264307411860671E+02
0.263707207631193E+02
0.262513940927281E+02
0.260741762739686E+02
0.258411573376179E+02
0.255550645054535E+02
0.252192141077851E+02
0.248374548939715E+02
0.244141046919731E+02
0.239538824781329E+02
0.234618379065453E+02
0.229432802263900E+02
0.224037083010968E+02
0.218487431568898E+02
0.212840641559819E+02
0.207153495390780E+02
0.263452513417712E+02
0.262850048250064E+02
0.261652275557719E+02
0.259873378134766E+02
0.257534304061768E+02
0.254662389376624E+02
0.251290877346500E+02
0.247458351679351E+02
0.243208103221338E+02
0.238587450731377E+02
0.233647036198207E+02
0.228440113947733E+02
0.223021850635795E+02
0.217448650352060E+02
0.211777515733900E+02
0.206065452481847E+02
0.262937386413765E+02
0.262333554388173E+02
0.261133057554880E+02
0.259350097875821E+02
0.257005652227565E+02
0.254127095123068E+02
0.250747718046899E+02
0.246906162736888E+02
0.242645787949713E+02
0.238013990288937E+02
0.233061499543582E+02
0.227841667762961E+02
0.222409769136305E+02
0.216822324872518E+02
0.211136463946053E+02
0.205409327067001E+02
0.262765313380539E+02
0.262161024010833E+02
0.260959615687976E+02
0.259175296777462E+02
0.256829053776547E+02
0.253948274053674E+02
0.250566265205693E+02
0.246721688363954E+02
0.242457924983807E+02
0.237822397691730E+02
0.232865865632337E+02
0.227641713533572E+02
0.222205251549672E+02
0.216613040067023E+02
0.210922250327857E+02
0.205190068218620E+02
0.300658082966887E+02
0.300146255064250E+02
0.299129070080314E+02
0.297619338256911E+02
0.295635951549499E+02
0.293203509496024E+02
0.290351842738146E+02
0.287115451636048E+02
0.283532879776929E+02
0.279646043430434E+02
0.275499538131647E+02
0.271139942632785E+02
0.266615138587492E+02
0.261973661702744E+02
0.257264096938066E+02
0.252534526894319E+02
0.296741861937902E+02
0.296221174194085E+02
0.295186341260510E+02
0.293650316534965E+02
0.291632205941682E+02
0.289156892903709E+02
0.286254560698772E+02
0.282960129653767E+02
0.279312628982562E+02
0.275354524309396E+02
0.271131022027015E+02
0.266689370675287E+02
0.262078177624016E+02
0.257346756692147E+02
0.252544519162646E+02
0.247720417205639E+02
0.292908668478409E+02
0.292379166700126E+02
0.291326776057530E+02
0.289764590404728E+02
0.287711925698781E+02
0.285193944207906E+02
0.282241175871913E+02
0.278888954278630E+02
0.275176787059034E+02
0.271147681724987E+02
0.266847448058953E+02
0.262323997177180E+02
0.257626655460775E+02
0.252805508874780E+02
0.247910790005277E+02
0.242992316689047E+02
0.289192742198395E+02
0.288654557405096E+02
0.287584869073427E+02
0.285996907522854E+02
0.283910192872804E+02
0.281350158621897E+02
0.278347672186823E+02
0.274938469867938E+02
0.271162526036132E+02
0.267063377539474E+02
0.262687424391646E+02
0.258083226791537E+02
0.253300816571116E+02
0.248391038471876E+02
0.243404933443197E+02
0.238393172692475E+02
0.285626078065950E+02
0.285079426494423E+02
0.283992870319618E+02
0.282379771117383E+02
0.280259845470367E+02
0.277658788051663E+02
0.274607791513754E+02
0.271142980648254E+02
0.267304780597115E+02
0.263137240082094E+02
0.258687330660607E+02
0.254004241978569E+02
0.249138691013662E+02
0.244142260583438E+02
0.239066779169541E+02
0.233963750638461E+02
0.282238289267257E+02
0.281683471545550E+02
0.280580645588783E+02
0.278943297883403E+02
0.276791332065466E+02
0.274150691635734E+02
0.271052879362357E+02
0.267534390830626E+02
0.263636081901551E+02
0.259402491009090E+02
0.254881137244962E+02
0.250121814117872E+02
0.245175896872345E+02
0.240095678511814E+02
0.234933746431958E+02
0.229742408092823E+02
0.279056520728497E+02
0.278493920163034E+02
0.277375587319257E+02
0.275715126198877E+02
0.273532616498295E+02
0.270854236071857E+02
0.267711779998818E+02
0.264142093703689E+02
0.260186439868708E+02
0.255889820027243E+02
0.251300271724073E+02
0.246468161042471E+02
0.241445488272621E+02
0.236285221734753E+02
0.231040671516999E+02
0.225764911404672E+02
0.276105405189334E+02
0.275535485117402E+02
0.274402567866660E+02
0.272720366600675E+02
0.270509124634201E+02
0.267795237747562E+02
0.264610773050931E+02
0.260992901835351E+02
0.256983266123218E+02
0.252627299763273E+02
0.247973524891103E+02
0.243072843466990E+02
0.237977841555030E+02
0.232742121226614E+02
0.227419671704399E+02
0.222064287874369E+02
0.273407053434400E+02
0.272830353607125E+02
0.271683926828015E+02
0.269981586205140E+02
0.267743724919598E+02
0.264996938477624E+02
0.261773543484299E+02
0.258111010360744E+02
0.254051329689664E+02
0.249640332989326E+02
0.244926988671842E+02
0.239962692810669E+02
0.234800572273021E+02
0.229494814973871E+02
0.224100038728623E+02
0.218670706688545E+02
0.270981070445367E+02
0.270398202423563E+02
0.269239484232935E+02
0.267518818940112E+02
0.265256734672028E+02
0.262480006874175E+02
0.259221177082622E+02
0.255517985615539E+02
0.251412737840582E+02
0.246951624773703E+02
0.242184018701864E+02
0.237161763370997E+02
0.231938476191718E+02
0.226568877099649E+02
0.221108155416112E+02
0.215611382558272E+02
0.268844589740093E+02
0.268256231306602E+02
0.267086571932108E+02
0.265349593982741E+02
0.263065944584718E+02
0.260262557938126E+02
0.256972174151773E+02
0.253232771988451E+02
0.249086935149102E+02
0.244581172808923E+02
0.239765215038164E+02
0.234691302571015E+02
0.229413488279498E+02
0.223986964878639E+02
0.218467430088076E+02
0.212910496975339E+02
0.267012318918858E+02
0.266419207535226E+02
0.265240076276017E+02
0.263488975569363E+02
0.261186654710278E+02
0.258360184260383E+02
0.255042474985837E+02
0.251271710707084E+02
0.247090714662924E+02
0.242546270062884E+02
0.237688415406515E+02
0.232569733962808E+02
0.227244654681016E+02
0.221768778960568E+02
0.216198244397886E+02
0.210589133125430E+02
0.265496590344789E+02
0.264899515706388E+02
0.263712486089817E+02
0.261949608262593E+02
0.259631716114942E+02
0.256785993157941E+02
0.253445491581792E+02
0.249648565233645E+02
0.245438236094473E+02
0.240861514894874E+02
0.235968696401524E+02
0.230812648707023E+02
0.225448113721031E+02
0.219931033206080E+02
0.214317911384333E+02
0.208665221637040E+02
0.264307411860671E+02
0.263707207631193E+02
0.262513940927281E+02
0.260741762739686E+02
0.258411573376179E+02
0.255550645054535E+02
0.252192141077851E+02
0.248374548939715E+02
0.244141046919731E+02
0.239538824781329E+02
0.234618379065453E+02
0.229432802263900E+02
0.224037083010968E+02
0.218487431568898E+02
0.212840641559819E+02
0.207153495390780E+02
0.263452513417712E+02
0.262850048250064E+02
0.261652275557719E+02
0.259873378134766E+02
0.257534304061768E+02
0.254662389376624E+02
0.251290877346500E+02
0.247458351679351E+02
0.243208103221338E+02
0.238587450731377E+02
0.233647036198207E+02
0.228440113947733E+02
0.223021850635795E+02
0.217448650352060E+02
0.211777515733900E+02
0.206065452481847E+02
0.262937386413765E+02
0.262333554388173E+02
0.261133057554880E+02
0.259350097875821E+02
0.257005652227565E+02
0.254127095123068E+02
0.250747718046899E+02
0.246906162736888E+02
0.242645787949713E+02
0.238013990288937E+02
0.233061499543582E+02
0.227841667762961E+02
0.222409769136305E+02
0.216822324872518E+02
0.211136463946053E+02
0.205409327067001E+02
0.262765313380539E+02
0.262161024010833E+02
0.260959615687976E+02
0.259175296777462E+02
0.256829053776547E+02
0.253948274053674E+02
0.250566265205693E+02
0.246721688363954E+02
0.242457924983807E+02
0.237822397691730E+02
0.232865865632337E+02
0.227641713533572E+02
0.222205251549672E+02
0.216613040067023E+02
0.210922250327857E+02
0.205190068218620E+02
</DataArray>
</PointData>
</Piece>
</RectilinearGrid>
</VTKFile>
