<?xml version="1.0"?>
<VTKFile type="RectilinearGrid" version="0.1" byte_order="LittleEndian">
<RectilinearGrid WholeExtent="0   63    0   63    0    3">
<Piece Extent="0   15   31   47    0    3">
<Coordinates>
<DataArray Name="x" type="Float32" format="ascii">
0.000000000000000E+00
0.100000000000000E+00
0.200000000000000E+00
0.300000000000000E+00
0.400000000000000E+00
0.500000000000000E+00
0.600000000000000E+00
0.700000000000000E+00
0.800000000000000E+00
0.900000000000000E+00
0.100000000000000E+01
0.110000000000000E+01
0.120000000000000E+01
0.130000000000000E+01
0.140000000000000E+01
0.150000000000000E+01
</DataArray>
<DataArray Name="y" type="Float32" format="ascii">
0.310000000000000E+01
0.320000000000000E+01
0.330000000000000E+01
0.340000000000000E+01
0.350000000000000E+01
0.360000000000000E+01
0.370000000000000E+01
0.380000000000000E+01
0.390000000000000E+01
0.400000000000000E+01
0.410000000000000E+01
0.420000000000000E+01
0.430000000000000E+01
0.440000000000000E+01
0.450000000000000E+01
0.460000000000000E+01
0.470000000000000E+01
</DataArray>
<DataArray Name="z" type="Float32" format="ascii">
0.000000000000000E+00
0.100000000000000E+00
0.200000000000000E+00
0.300000000000000E+00
</DataArray>
</Coordinates>
<PointData Scalars="c">
<DataArray type="Float32" Name="c" format="ascii">
0.256647739039257E+02
0.256261495717746E+02
0.255493087748887E+02
0.254350621996340E+02
0.252846133495293E+02
0.250995437772506E+02
0.248817938234216E+02
0.246336392122163E+02
0.243576639197661E+02
0.240567297845346E+02
0.237339433680847E+02
0.233926205995133E+02
0.230362497474043E+02
0.226684532601661E+02
0.222929490002896E+02
0.219135113720272E+02
0.256788866213960E+02
0.256402853353801E+02
0.255634904218894E+02
0.254493121508485E+02
0.252989534044037E+02
0.251139949129110E+02
0.248963759990998E+02
0.246483711804828E+02
0.243725630460560E+02
0.240718118765043E+02
0.237492225163844E+02
0.234081090315974E+02
0.230519576960265E+02
0.226843888482046E+02
0.223091181435246E+02
0.219299177014325E+02
0.257211045951264E+02
0.256825722087112E+02
0.256059144698702E+02
0.254919404033457E+02
0.253418510333540E+02
0.251572246314973E+02
0.249399974770063E+02
0.246924404795197E+02
0.244171320805985E+02
0.241169279033423E+02
0.237949276587228E+02
0.234544398420579E+02
0.230989447635686E+02
0.227320564538866E+02
0.223574839699474E+02
0.219789926005353E+02
0.257910678668799E+02
0.257526495201006E+02
0.256762188265059E+02
0.255625827492921E+02
0.254129392366832E+02
0.252288624896210E+02
0.250122837486715E+02
0.247654679505807E+02
0.244909866709266E+02
0.241916878224866E+02
0.238706626181664E+02
0.235312103320977E+02
0.231768014029515E+02
0.228110394203401E+02
0.224376225196096E+02
0.220603046839988E+02
0.258881784468328E+02
0.258499181005685E+02
0.257738019747675E+02
0.256606341751932E+02
0.255116083866149E+02
0.253282931679834E+02
0.251126127763863E+02
0.248668238705262E+02
0.245934885105062E+02
0.242954439238879E+02
0.239757695471805E+02
0.236377518766150E+02
0.232848476723951E+02
0.229206460572916E+02
0.225488300346985E+02
0.221731379247177E+02
0.260116032746569E+02
0.259735432595449E+02
0.258978259778100E+02
0.257852519102518E+02
0.256370093330900E+02
0.254546596481298E+02
0.252401182538717E+02
0.249956313086919E+02
0.247237488033003E+02
0.244272944128688E+02
0.241093326383743E+02
0.237731337713153E+02
0.234221372261633E+02
0.230599137814021E+02
0.226901272540283E+02
0.223164961055571E+02
0.261602784628720E+02
0.261224590483173E+02
0.260472207824613E+02
0.259353597895318E+02
0.257880578457761E+02
0.256068677518583E+02
0.253936942608666E+02
0.251507709135071E+02
0.248806331981863E+02
0.245860885068720E+02
0.242701833967289E+02
0.239361686920361E+02
0.235874629709361E+02
0.232276149778403E+02
0.228602654860547E+02
0.224891091080313E+02
0.263329149142564E+02
0.262953739026161E+02
0.262206899119590E+02
0.261096540214371E+02
0.259634404802968E+02
0.257835921294280E+02
0.255720013955708E+02
0.253308872102599E+02
0.250627682717682E+02
0.247704331214931E+02
0.244569075452841E+02
0.241254198346017E+02
0.237793644522551E+02
0.234222646434899E+02
0.230577345166149E+02
0.226894410898214E+02
0.265280054228362E+02
0.264907777733834E+02
0.264167176560490E+02
0.263066104662264E+02
0.261616219735537E+02
0.259832837991539E+02
0.257734744848182E+02
0.255343965067653E+02
0.252685496528385E+02
0.249787012351899E+02
0.246678536494844E+02
0.243392098159191E+02
0.239961370470027E+02
0.236421298827778E+02
0.232807724172355E+02
0.229157006117034E+02
0.267438333795719E+02
0.267069508663071E+02
0.266335778779495E+02
0.265244935434580E+02
0.263808542839074E+02
0.262041793515164E+02
0.259963319819837E+02
0.257594965133464E+02
0.254961518908610E+02
0.252090420305878E+02
0.249011435532718E+02
0.245756314242274E+02
0.242358430443537E+02
0.238852413328407E+02
0.235273773247972E+02
0.231658527786033E+02
0.269784832082788E+02
0.269419741150603E+02
0.268693445619313E+02
0.267613668903438E+02
0.266191873958502E+02
0.264443119345179E+02
0.262385871659110E+02
0.260041777864574E+02
0.257435401733572E+02
0.254593929123627E+02
0.251546847215895E+02
0.248325603074719E+02
0.244963246981507E+02
0.241494065946796E+02
0.237953212626910E+02
0.234376334582365E+02
0.272298526536652E+02
0.271937415094965E+02
0.271219042215059E+02
0.270151058891214E+02
0.268744820047893E+02
0.267015241328184E+02
0.264980612497411E+02
0.262662371006258E+02
0.260084839921568E+02
0.257274934964631E+02
0.254261845784141E+02
0.251076696828838E+02
0.247752193273981E+02
0.244322257403245E+02
0.240821660665784E+02
0.237285656333697E+02
0.274956670310234E+02
0.274599743876845E+02
0.273889702758052E+02
0.272834121690898E+02
0.271444241850210E+02
0.269734828405590E+02
0.267723984957859E+02
0.265432928405349E+02
0.262885728454779E+02
0.260109016522880E+02
0.257131669161357E+02
0.253984471373761E+02
0.250699765279251E+02
0.247311089522004E+02
0.243852814638559E+02
0.240359779295440E+02
0.277734955257096E+02
0.277382377792674E+02
0.276680994803340E+02
0.275638301675505E+02
0.274265421225681E+02
0.272576962063652E+02
0.270590834111733E+02
0.268328024836459E+02
0.265812340413798E+02
0.263070116580149E+02
0.260129904306780E+02
0.257022135669460E+02
0.253778775368543E+02
0.250432963294834E+02
0.247018653345303E+02
0.243570253387197E+02
0.280607696000838E+02
0.280259588571765E+02
0.279567104678582E+02
0.278537658035157E+02
0.277182249642353E+02
0.275515326987819E+02
0.273554600688392E+02
0.271320822137123E+02
0.268837526382058E+02
0.266130744994799E+02
0.263228694071108E+02
0.260161442737960E+02
0.256960567622089E+02
0.253658798671187E+02
0.250289661522953E+02
0.246887121305921E+02
0.283548035263870E+02
0.283204475155707E+02
0.282521044160826E+02
0.281505072790346E+02
0.280167437953398E+02
0.278522423016404E+02
0.276587535598668E+02
0.274383286671678E+02
0.271932935194892E+02
0.269262203051282E+02
0.266398965429028E+02
0.263372922025857E+02
0.260215254530168E+02
0.256958275765409E+02
0.253635075683256E+02
0.250279169074282E+02
0.286528170168468E+02
0.286189190447260E+02
0.285514878117175E+02
0.284512479760480E+02
0.283192747118048E+02
0.281569798022946E+02
0.279660935368528E+02
0.277486427683349E+02
0.275069255550875E+02
0.272434828641959E+02
0.269610678510022E+02
0.266626132526867E+02
0.263511974411832E+02
0.260300096735297E+02
0.257023150571977E+02
0.253714197156798E+02
0.256647739039257E+02
0.256261495717746E+02
0.255493087748887E+02
0.254350621996340E+02
0.252846133495293E+02
0.250995437772506E+02
0.248817938234216E+02
0.246336392122163E+02
0.243576639197661E+02
0.240567297845346E+02
0.237339433680847E+02
0.233926205995133E+02
0.230362497474043E+02
0.226684532601661E+02
0.222929490002896E+02
0.219135113720272E+02
0.256788866213960E+02
0.256402853353801E+02
0.255634904218894E+02
0.254493121508485E+02
0.252989534044037E+02
0.251139949129110E+02
0.248963759990998E+02
0.246483711804828E+02
0.243725630460560E+02
0.240718118765043E+02
0.237492225163844E+02
0.234081090315974E+02
0.230519576960265E+02
0.226843888482046E+02
0.223091181435246E+02
0.219299177014325E+02
0.257211045951264E+02
0.256825722087112E+02
0.256059144698702E+02
0.254919404033457E+02
0.253418510333540E+02
0.251572246314973E+02
0.249399974770063E+02
0.246924404795197E+02
0.244171320805985E+02
0.241169279033423E+02
0.237949276587228E+02
0.234544398420579E+02
0.230989447635686E+02
0.227320564538866E+02
0.223574839699474E+02
0.219789926005353E+02
0.257910678668799E+02
0.257526495201006E+02
0.256762188265059E+02
0.255625827492921E+02
0.254129392366832E+02
0.252288624896210E+02
0.250122837486715E+02
0.247654679505807E+02
0.244909866709266E+02
0.241916878224866E+02
0.238706626181664E+02
0.235312103320977E+02
0.231768014029515E+02
0.228110394203401E+02
0.224376225196096E+02
0.220603046839988E+02
0.258881784468328E+02
0.258499181005685E+02
0.257738019747675E+02
0.256606341751932E+02
0.255116083866149E+02
0.253282931679834E+02
0.251126127763863E+02
0.248668238705262E+02
0.245934885105062E+02
0.242954439238879E+02
0.239757695471805E+02
0.236377518766150E+02
0.232848476723951E+02
0.229206460572916E+02
0.225488300346985E+02
0.221731379247177E+02
0.260116032746569E+02
0.259735432595449E+02
0.258978259778100E+02
0.257852519102518E+02
0.256370093330900E+02
0.254546596481298E+02
0.252401182538717E+02
0.249956313086919E+02
0.247237488033003E+02
0.244272944128688E+02
0.241093326383743E+02
0.237731337713153E+02
0.234221372261633E+02
0.230599137814021E+02
0.226901272540283E+02
0.223164961055571E+02
0.261602784628720E+02
0.261224590483173E+02
0.260472207824613E+02
0.259353597895318E+02
0.257880578457761E+02
0.256068677518583E+02
0.253936942608666E+02
0.251507709135071E+02
0.248806331981863E+02
0.245860885068720E+02
0.242701833967289E+02
0.239361686920361E+02
0.235874629709361E+02
0.232276149778403E+02
0.228602654860547E+02
0.224891091080313E+02
0.263329149142564E+02
0.262953739026161E+02
0.262206899119590E+02
0.261096540214371E+02
0.259634404802968E+02
0.257835921294280E+02
0.255720013955708E+02
0.253308872102599E+02
0.250627682717682E+02
0.247704331214931E+02
0.244569075452841E+02
0.241254198346017E+02
0.237793644522551E+02
0.234222646434899E+02
0.230577345166149E+02
0.226894410898214E+02
0.265280054228362E+02
0.264907777733834E+02
0.264167176560490E+02
0.263066104662264E+02
0.261616219735537E+02
0.259832837991539E+02
0.257734744848182E+02
0.255343965067653E+02
0.252685496528385E+02
0.249787012351899E+02
0.246678536494844E+02
0.243392098159191E+02
0.239961370470027E+02
0.236421298827778E+02
0.232807724172355E+02
0.229157006117034E+02
0.267438333795719E+02
0.267069508663071E+02
0.266335778779495E+02
0.265244935434580E+02
0.263808542839074E+02
0.262041793515164E+02
0.259963319819837E+02
0.257594965133464E+02
0.254961518908610E+02
0.252090420305878E+02
0.249011435532718E+02
0.245756314242274E+02
0.242358430443537E+02
0.238852413328407E+02
0.235273773247972E+02
0.231658527786033E+02
0.269784832082788E+02
0.269419741150603E+02
0.268693445619313E+02
0.267613668903438E+02
0.266191873958502E+02
0.264443119345179E+02
0.262385871659110E+02
0.260041777864574E+02
0.257435401733572E+02
0.254593929123627E+02
0.251546847215895E+02
0.248325603074719E+02
0.244963246981507E+02
0.241494065946796E+02
0.237953212626910E+02
0.234376334582365E+02
0.272298526536652E+02
0.271937415094965E+02
0.271219042215059E+02
0.270151058891214E+02
0.268744820047893E+02
0.267015241328184E+02
0.264980612497411E+02
0.262662371006258E+02
0.260084839921568E+02
0.257274934964631E+02
0.254261845784141E+02
0.251076696828838E+02
0.247752193273981E+02
0.244322257403245E+02
0.240821660665784E+02
0.237285656333697E+02
0.274956670310234E+02
0.274599743876845E+02
0.273889702758052E+02
0.272834121690898E+02
0.271444241850210E+02
0.269734828405590E+02
0.267723984957859E+02
0.265432928405349E+02
0.262885728454779E+02
0.260109016522880E+02
0.257131669161357E+02
0.253984471373761E+02
0.250699765279251E+02
0.247311089522004E+02
0.243852814638559E+02
0.240359779295440E+02
0.277734955257096E+02
0.277382377792674E+02
0.276680994803340E+02
0.275638301675505E+02
0.274265421225681E+02
0.272576962063652E+02
0.270590834111733E+02
0.268328024836459E+02
0.265812340413798E+02
0.263070116580149E+02
0.260129904306780E+02
0.257022135669460E+02
0.253778775368543E+02
0.250432963294834E+02
0.247018653345303E+02
0.243570253387197E+02
0.280607696000838E+02
0.280259588571765E+02
0.279567104678582E+02
0.278537658035157E+02
0.277182249642353E+02
0.275515326987819E+02
0.273554600688392E+02
0.271320822137123E+02
0.268837526382058E+02
0.266130744994799E+02
0.263228694071108E+02
0.260161442737960E+02
0.256960567622089E+02
0.253658798671187E+02
0.250289661522953E+02
0.246887121305921E+02
0.283548035263870E+02
0.283204475155707E+02
0.282521044160826E+02
0.281505072790346E+02
0.280167437953398E+02
0.278522423016404E+02
0.276587535598668E+02
0.274383286671678E+02
0.271932935194892E+02
0.269262203051282E+02
0.266398965429028E+02
0.263372922025857E+02
0.260215254530168E+02
0.256958275765409E+02
0.253635075683256E+02
0.250279169074282E+02
0.286528170168468E+02
0.286189190447260E+02
0.285514878117175E+02
0.284512479760480E+02
0.283192747118048E+02
0.281569798022946E+02
0.279660935368528E+02
0.277486427683349E+02
0.275069255550875E+02
0.272434828641959E+02
0.269610678510022E+02
0.266626132526867E+02
0.263511974411832E+02
0.260300096735297E+02
0.257023150571977E+02
0.253714197156798E+02
0.256647739039257E+02
0.256261495717746E+02
0.255493087748887E+02
0.254350621996340E+02
0.252846133495293E+02
0.250995437772506E+02
0.248817938234216E+02
0.246336392122163E+02
0.243576639197661E+02
0.240567297845346E+02
0.237339433680847E+02
0.233926205995133E+02
0.230362497474043E+02
0.226684532601661E+02
0.222929490002896E+02
0.219135113720272E+02
0.256788866213960E+02
0.256402853353801E+02
0.255634904218894E+02
0.254493121508485E+02
0.252989534044037E+02
0.251139949129110E+02
0.248963759990998E+02
0.246483711804828E+02
0.243725630460560E+02
0.240718118765043E+02
0.237492225163844E+02
0.234081090315974E+02
0.230519576960265E+02
0.226843888482046E+02
0.223091181435246E+02
0.219299177014325E+02
0.257211045951264E+02
0.256825722087112E+02
0.256059144698702E+02
0.254919404033457E+02
0.253418510333540E+02
0.251572246314973E+02
0.249399974770063E+02
0.246924404795197E+02
0.244171320805985E+02
0.241169279033423E+02
0.237949276587228E+02
0.234544398420579E+02
0.230989447635686E+02
0.227320564538866E+02
0.223574839699474E+02
0.219789926005353E+02
0.257910678668799E+02
0.257526495201006E+02
0.256762188265059E+02
0.255625827492921E+02
0.254129392366832E+02
0.252288624896210E+02
0.250122837486715E+02
0.247654679505807E+02
0.244909866709266E+02
0.241916878224866E+02
0.238706626181664E+02
0.235312103320977E+02
0.231768014029515E+02
0.228110394203401E+02
0.224376225196096E+02
0.220603046839988E+02
0.258881784468328E+02
0.258499181005685E+02
0.257738019747675E+02
0.256606341751932E+02
0.255116083866149E+02
0.253282931679834E+02
0.251126127763863E+02
0.248668238705262E+02
0.245934885105062E+02
0.242954439238879E+02
0.239757695471805E+02
0.236377518766150E+02
0.232848476723951E+02
0.229206460572916E+02
0.225488300346985E+02
0.221731379247177E+02
0.260116032746569E+02
0.259735432595449E+02
0.258978259778100E+02
0.257852519102518E+02
0.256370093330900E+02
0.254546596481298E+02
0.252401182538717E+02
0.249956313086919E+02
0.247237488033003E+02
0.244272944128688E+02
0.241093326383743E+02
0.237731337713153E+02
0.234221372261633E+02
0.230599137814021E+02
0.226901272540283E+02
0.223164961055571E+02
0.261602784628720E+02
0.261224590483173E+02
0.260472207824613E+02
0.259353597895318E+02
0.257880578457761E+02
0.256068677518583E+02
0.253936942608666E+02
0.251507709135071E+02
0.248806331981863E+02
0.245860885068720E+02
0.242701833967289E+02
0.239361686920361E+02
0.235874629709361E+02
0.232276149778403E+02
0.228602654860547E+02
0.224891091080313E+02
0.263329149142564E+02
0.262953739026161E+02
0.262206899119590E+02
0.261096540214371E+02
0.259634404802968E+02
0.257835921294280E+02
0.255720013955708E+02
0.253308872102599E+02
0.250627682717682E+02
0.247704331214931E+02
0.244569075452841E+02
0.241254198346017E+02
0.237793644522551E+02
0.234222646434899E+02
0.230577345166149E+02
0.226894410898214E+02
0.265280054228362E+02
0.264907777733834E+02
0.264167176560490E+02
0.263066104662264E+02
0.261616219735537E+02
0.259832837991539E+02
0.257734744848182E+02
0.255343965067653E+02
0.252685496528385E+02
0.249787012351899E+02
0.246678536494844E+02
0.243392098159191E+02
0.239961370470027E+02
0.236421298827778E+02
0.232807724172355E+02
0.229157006117034E+02
0.267438333795719E+02
0.267069508663071E+02
0.266335778779495E+02
0.265244935434580E+02
0.263808542839074E+02
0.262041793515164E+02
0.259963319819837E+02
0.257594965133464E+02
0.254961518908610E+02
0.252090420305878E+02
0.249011435532718E+02
0.245756314242274E+02
0.242358430443537E+02
0.238852413328407E+02
0.235273773247972E+02
0.231658527786033E+02
0.269784832082788E+02
0.269419741150603E+02
0.268693445619313E+02
0.267613668903438E+02
0.266191873958502E+02
0.264443119345179E+02
0.262385871659110E+02
0.260041777864574E+02
0.257435401733572E+02
0.254593929123627E+02
0.251546847215895E+02
0.248325603074719E+02
0.244963246981507E+02
0.241494065946796E+02
0.237953212626910E+02
0.234376334582365E+02
0.272298526536652E+02
0.271937415094965E+02
0.271219042215059E+02
0.270151058891214E+02
0.268744820047893E+02
0.267015241328184E+02
0.264980612497411E+02
0.262662371006258E+02
0.260084839921568E+02
0.257274934964631E+02
0.254261845784141E+02
0.251076696828838E+02
0.247752193273981E+02
0.244322257403245E+02
0.240821660665784E+02
0.237285656333697E+02
0.274956670310234E+02
0.274599743876845E+02
0.273889702758052E+02
0.272834121690898E+02
0.271444241850210E+02
0.269734828405590E+02
0.267723984957859E+02
0.265432928405349E+02
0.262885728454779E+02
0.260109016522880E+02
0.257131669161357E+02
0.253984471373761E+02
0.250699765279251E+02
0.247311089522004E+02
0.243852814638559E+02
0.240359779295440E+02
0.277734955257096E+02
0.277382377792674E+02
0.276680994803340E+02
0.275638301675505E+02
0.274265421225681E+02
0.272576962063652E+02
0.270590834111733E+02
0.268328024836459E+02
0.265812340413798E+02
0.263070116580149E+02
0.260129904306780E+02
0.257022135669460E+02
0.253778775368543E+02
0.250432963294834E+02
0.247018653345303E+02
0.243570253387197E+02
0.280607696000838E+02
0.280259588571765E+02
0.279567104678582E+02
0.278537658035157E+02
0.277182249642353E+02
0.275515326987819E+02
0.273554600688392E+02
0.271320822137123E+02
0.268837526382058E+02
0.266130744994799E+02
0.263228694071108E+02
0.260161442737960E+02
0.256960567622089E+02
0.253658798671187E+02
0.250289661522953E+02
0.246887121305921E+02
0.283548035263870E+02
0.283204475155707E+02
0.282521044160826E+02
0.281505072790346E+02
0.280167437953398E+02
0.278522423016404E+02
0.276587535598668E+02
0.274383286671678E+02
0.271932935194892E+02
0.269262203051282E+02
0.266398965429028E+02
0.263372922025857E+02
0.260215254530168E+02
0.256958275765409E+02
0.253635075683256E+02
0.250279169074282E+02
0.286528170168468E+02
0.286189190447260E+02
0.285514878117175E+02
0.284512479760480E+02
0.283192747118048E+02
0.281569798022946E+02
0.279660935368528E+02
0.277486427683349E+02
0.275069255550875E+02
0.272434828641959E+02
0.269610678510022E+02
0.266626132526867E+02
0.263511974411832E+02
0.260300096735297E+02
0.257023150571977E+02
0.253714197156798E+02
0.256647739039257E+02
0.256261495717746E+02
0.255493087748887E+02
0.254350621996340E+02
0.252846133495293E+02
0.250995437772506E+02
0.248817938234216E+02
0.246336392122163E+02
0.243576639197661E+02
0.240567297845346E+02
0.237339433680847E+02
0.233926205995133E+02
0.230362497474043E+02
0.226684532601661E+02
0.222929490002896E+02
0.219135113720272E+02
0.256788866213960E+02
0.256402853353801E+02
0.255634904218894E+02
0.254493121508485E+02
0.252989534044037E+02
0.251139949129110E+02
0.248963759990998E+02
0.246483711804828E+02
0.243725630460560E+02
0.240718118765043E+02
0.237492225163844E+02
0.234081090315974E+02
0.230519576960265E+02
0.226843888482046E+02
0.223091181435246E+02
0.219299177014325E+02
0.257211045951264E+02
0.256825722087112E+02
0.256059144698702E+02
0.254919404033457E+02
0.253418510333540E+02
0.251572246314973E+02
0.249399974770063E+02
0.246924404795197E+02
0.244171320805985E+02
0.241169279033423E+02
0.237949276587228E+02
0.234544398420579E+02
0.230989447635686E+02
0.227320564538866E+02
0.223574839699474E+02
0.219789926005353E+02
0.257910678668799E+02
0.257526495201006E+02
0.256762188265059E+02
0.255625827492921E+02
0.254129392366832E+02
0.252288624896210E+02
0.250122837486715E+02
0.247654679505807E+02
0.244909866709266E+02
0.241916878224866E+02
0.238706626181664E+02
0.235312103320977E+02
0.231768014029515E+02
0.228110394203401E+02
0.224376225196096E+02
0.220603046839988E+02
0.258881784468328E+02
0.258499181005685E+02
0.257738019747675E+02
0.256606341751932E+02
0.255116083866149E+02
0.253282931679834E+02
0.251126127763863E+02
0.248668238705262E+02
0.245934885105062E+02
0.242954439238879E+02
0.239757695471805E+02
0.236377518766150E+02
0.232848476723951E+02
0.229206460572916E+02
0.225488300346985E+02
0.221731379247177E+02
0.260116032746569E+02
0.259735432595449E+02
0.258978259778100E+02
0.257852519102518E+02
0.256370093330900E+02
0.254546596481298E+02
0.252401182538717E+02
0.249956313086919E+02
0.247237488033003E+02
0.244272944128688E+02
0.241093326383743E+02
0.237731337713153E+02
0.234221372261633E+02
0.230599137814021E+02
0.226901272540283E+02
0.223164961055571E+02
0.261602784628720E+02
0.261224590483173E+02
0.260472207824613E+02
0.259353597895318E+02
0.257880578457761E+02
0.256068677518583E+02
0.253936942608666E+02
0.251507709135071E+02
0.248806331981863E+02
0.245860885068720E+02
0.242701833967289E+02
0.239361686920361E+02
0.235874629709361E+02
0.232276149778403E+02
0.228602654860547E+02
0.224891091080313E+02
0.263329149142564E+02
0.262953739026161E+02
0.262206899119590E+02
0.261096540214371E+02
0.259634404802968E+02
0.257835921294280E+02
0.255720013955708E+02
0.253308872102599E+02
0.250627682717682E+02
0.247704331214931E+02
0.244569075452841E+02
0.241254198346017E+02
0.237793644522551E+02
0.234222646434899E+02
0.230577345166149E+02
0.226894410898214E+02
0.265280054228362E+02
0.264907777733834E+02
0.264167176560490E+02
0.263066104662264E+02
0.261616219735537E+02
0.259832837991539E+02
0.257734744848182E+02
0.255343965067653E+02
0.252685496528385E+02
0.249787012351899E+02
0.246678536494844E+02
0.243392098159191E+02
0.239961370470027E+02
0.236421298827778E+02
0.232807724172355E+02
0.229157006117034E+02
0.267438333795719E+02
0.267069508663071E+02
0.266335778779495E+02
0.265244935434580E+02
0.263808542839074E+02
0.262041793515164E+02
0.259963319819837E+02
0.257594965133464E+02
0.254961518908610E+02
0.252090420305878E+02
0.249011435532718E+02
0.245756314242274E+02
0.242358430443537E+02
0.238852413328407E+02
0.235273773247972E+02
0.231658527786033E+02
0.269784832082788E+02
0.269419741150603E+02
0.268693445619313E+02
0.267613668903438E+02
0.266191873958502E+02
0.264443119345179E+02
0.262385871659110E+02
0.260041777864574E+02
0.257435401733572E+02
0.254593929123627E+02
0.251546847215895E+02
0.248325603074719E+02
0.244963246981507E+02
0.241494065946796E+02
0.237953212626910E+02
0.234376334582365E+02
0.272298526536652E+02
0.271937415094965E+02
0.271219042215059E+02
0.270151058891214E+02
0.268744820047893E+02
0.267015241328184E+02
0.264980612497411E+02
0.262662371006258E+02
0.260084839921568E+02
0.257274934964631E+02
0.254261845784141E+02
0.251076696828838E+02
0.247752193273981E+02
0.244322257403245E+02
0.240821660665784E+02
0.237285656333697E+02
0.274956670310234E+02
0.274599743876845E+02
0.273889702758052E+02
0.272834121690898E+02
0.271444241850210E+02
0.269734828405590E+02
0.267723984957859E+02
0.265432928405349E+02
0.262885728454779E+02
0.260109016522880E+02
0.257131669161357E+02
0.253984471373761E+02
0.250699765279251E+02
0.247311089522004E+02
0.243852814638559E+02
0.240359779295440E+02
0.277734955257096E+02
0.277382377792674E+02
0.276680994803340E+02
0.275638301675505E+02
0.274265421225681E+02
0.272576962063652E+02
0.270590834111733E+02
0.268328024836459E+02
0.265812340413798E+02
0.263070116580149E+02
0.260129904306780E+02
0.257022135669460E+02
0.253778775368543E+02
0.250432963294834E+02
0.247018653345303E+02
0.243570253387197E+02
0.280607696000838E+02
0.280259588571765E+02
0.279567104678582E+02
0.278537658035157E+02
0.277182249642353E+02
0.275515326987819E+02
0.273554600688392E+02
0.271320822137123E+02
0.268837526382058E+02
0.266130744994799E+02
0.263228694071108E+02
0.260161442737960E+02
0.256960567622089E+02
0.253658798671187E+02
0.250289661522953E+02
0.246887121305921E+02
0.283548035263870E+02
0.283204475155707E+02
0.282521044160826E+02
0.281505072790346E+02
0.280167437953398E+02
0.278522423016404E+02
0.276587535598668E+02
0.274383286671678E+02
0.271932935194892E+02
0.269262203051282E+02
0.266398965429028E+02
0.263372922025857E+02
0.260215254530168E+02
0.256958275765409E+02
0.253635075683256E+02
0.250279169074282E+02
0.286528170168468E+02
0.286189190447260E+02
0.285514878117175E+02
0.284512479760480E+02
0.283192747118048E+02
0.281569798022946E+02
0.279660935368528E+02
0.277486427683349E+02
0.275069255550875E+02
0.272434828641959E+02
0.269610678510022E+02
0.266626132526867E+02
0.263511974411832E+02
0.260300096735297E+02
0.257023150571977E+02
0.253714197156798E+02
</DataArray>
</PointData>
</Piece>
</RectilinearGrid>
</VTKFile>
