<?xml version="1.0"?>
<VTKFile type="RectilinearGrid" version="0.1" byte_order="LittleEndian">
<RectilinearGrid WholeExtent="0   63    0   63    0    3">
<Piece Extent="0   15   31   47    0    3">
<Coordinates>
<DataArray Name="x" type="Float32" format="ascii">
0.000000000000000E+00
0.100000000000000E+00
0.200000000000000E+00
0.300000000000000E+00
0.400000000000000E+00
0.500000000000000E+00
0.600000000000000E+00
0.700000000000000E+00
0.800000000000000E+00
0.900000000000000E+00
0.100000000000000E+01
0.110000000000000E+01
0.120000000000000E+01
0.130000000000000E+01
0.140000000000000E+01
0.150000000000000E+01
</DataArray>
<DataArray Name="y" type="Float32" format="ascii">
0.310000000000000E+01
0.320000000000000E+01
0.330000000000000E+01
0.340000000000000E+01
0.350000000000000E+01
0.360000000000000E+01
0.370000000000000E+01
0.380000000000000E+01
0.390000000000000E+01
0.400000000000000E+01
0.410000000000000E+01
0.420000000000000E+01
0.430000000000000E+01
0.440000000000000E+01
0.450000000000000E+01
0.460000000000000E+01
0.470000000000000E+01
</DataArray>
<DataArray Name="z" type="Float32" format="ascii">
0.000000000000000E+00
0.100000000000000E+00
0.200000000000000E+00
0.300000000000000E+00
</DataArray>
</Coordinates>
<PointData Scalars="c">
<DataArray type="Float32" Name="c" format="ascii">
0.271563715551980E+02
0.270700054249448E+02
0.268986179988113E+02
0.266448503041286E+02
0.263125458151937E+02
0.259066183293475E+02
0.254328907289819E+02
0.248979155491405E+02
0.243087889172798E+02
0.236729690539053E+02
0.229981092116439E+02
0.222919128671711E+02
0.215620164092936E+02
0.208159017620733E+02
0.200608386173386E+02
0.193038534699336E+02
0.271744184047589E+02
0.270881218442834E+02
0.269168732434687E+02
0.266633130081505E+02
0.263312836961411E+02
0.259256979076898E+02
0.254523770596595E+02
0.249178719581179E+02
0.243292767308909E+02
0.236940473043595E+02
0.230198342988506E+02
0.223143381556141E+02
0.215851917395042E+02
0.208398728596058E+02
0.200856463881353E+02
0.193295331794523E+02
0.272284847239046E+02
0.271423960234183E+02
0.269715621945107E+02
0.267186217679603E+02
0.263874145366788E+02
0.259828494898702E+02
0.255107436245571E+02
0.249776425343406E+02
0.243906343219548E+02
0.237571680066628E+02
0.230848862912417E+02
0.223814804972799E+02
0.216545729153099E+02
0.209116290219789E+02
0.201598992623844E+02
0.194063876246321E+02
0.273183473870967E+02
0.272326023106977E+02
0.270624541324239E+02
0.268105382236175E+02
0.264806897188454E+02
0.260778115247065E+02
0.256077131963608E+02
0.250769315571619E+02
0.244925445832124E+02
0.238619897020279E+02
0.231928963541804E+02
0.224929406195272E+02
0.217697271584203E+02
0.210307009363703E+02
0.202830884594184E+02
0.195338657885892E+02
0.274436329576690E+02
0.273583631310535E+02
0.271891631807508E+02
0.269386639858364E+02
0.266106940583331E+02
0.262101476602295E+02
0.257428237766327E+02
0.252152467866425E+02
0.246344803196061E+02
0.240079454157446E+02
0.233432528180382E+02
0.226480571870352E+02
0.219299384940891E+02
0.211963130836111E+02
0.204543741712787E+02
0.197110591029058E+02
0.276038149900828E+02
0.275191463915709E+02
0.273511459203894E+02
0.271024385685973E+02
0.267768441711179E+02
0.263792456679814E+02
0.259154282109642E+02
0.253918999135666E+02
0.248157056888680E+02
0.241942452560979E+02
0.235351051149655E+02
0.228459122666401E+02
0.221342149429643E+02
0.214073928617870E+02
0.206725968245825E+02
0.199367150509916E+02
0.277982095712560E+02
0.277142611590572E+02
0.275476973423887E+02
0.273011357615832E+02
0.269783854179482E+02
0.265843151223212E+02
0.261246927782806E+02
0.256060062480062E+02
0.250352771937985E+02
0.244198789304477E+02
0.237673680540660E+02
0.230853376106859E+02
0.223812970728901E+02
0.216625816740796E+02
0.209362909740596E+02
0.202092541323970E+02
0.280259684934844E+02
0.279428509944763E+02
0.277779445086201E+02
0.275338577881661E+02
0.272143867400607E+02
0.268243831063700E+02
0.263695939739936E+02
0.258564828030416E+02
0.252920433075674E+02
0.246836171712277E+02
0.240387253247779E+02
0.233649205303074E+02
0.226696665473662E+02
0.219602464658437E+02
0.212437001436800E+02
0.205267883176346E+02
0.282860693865955E+02
0.282038842630526E+02
0.280408372212611E+02
0.277995265225754E+02
0.274837326224442E+02
0.270982871328375E+02
0.266489126154705E+02
0.261420438295849E+02
0.255846417015476E+02
0.249840109398094E+02
0.243476309784876E+02
0.236830079732619E+02
0.229975531313927E+02
0.222984899985556E+02
0.215927907103472E+02
0.208871388763518E+02
0.285773021565168E+02
0.284961407578442E+02
0.283351350199229E+02
0.280968710561318E+02
0.277851114350023E+02
0.274046644791874E+02
0.269612244060871E+02
0.264611928620053E+02
0.259114930442547E+02
0.253193872698923E+02
0.246923076261147E+02
0.240377074019689E+02
0.233629385891555E+02
0.226751581140472E+02
0.219812628823703E+02
0.212878514098678E+02
0.288982512006080E+02
0.288181940978853E+02
0.286593899488317E+02
0.284244110264370E+02
0.281169995266016E+02
0.277419372621050E+02
0.273048862207961E+02
0.268122104624432E+02
0.262707904701226E+02
0.256878407447296E+02
0.250707402251682E+02
0.244268832070147E+02
0.237635560522547E+02
0.230878423922591E+02
0.224065569813077E+02
0.217262060830764E+02
0.292472731128399E+02
0.291683896055208E+02
0.290119247815946E+02
0.287804353709999E+02
0.284776406979747E+02
0.281082928316300E+02
0.276780176371079E+02
0.271931371195028E+02
0.266604840929103E+02
0.260872198884365E+02
0.254806646273619E+02
0.248481477025749E+02
0.241968837641105E+02
0.235338769506682E+02
0.228658536010626E+02
0.221992214387802E+02
0.296224699636032E+02
0.295448177406431E+02
0.293908067669834E+02
0.291629765469711E+02
0.288650210655174E+02
0.285016594589717E+02
0.280784776384742E+02
0.276017511716032E+02
0.270782603668896E+02
0.265151081962210E+02
0.259195505214220E+02
0.252988462356446E+02
0.246601326166533E+02
0.240103286723736E+02
0.233560667887097E+02
0.227036507833609E+02
0.300216587386386E+02
0.299452836711371E+02
0.297938174645610E+02
0.295697807698483E+02
0.292768398471022E+02
0.289196778212467E+02
0.285038369588608E+02
0.280355421822562E+02
0.275215166739938E+02
0.269688001245627E+02
0.263845790264195E+02
0.257760365897763E+02
0.251502275761414E+02
0.245139808664754E+02
0.238738301481943E+02
0.232359709334432E+02
0.304423381340335E+02
0.303672741735284E+02
0.302184198581929E+02
0.299982754501015E+02
0.297104772364492E+02
0.293596694337264E+02
0.289513471993337E+02
0.284916808742535E+02
0.279873322157028E+02
0.274452730872739E+02
0.268726159438620E+02
0.262764636488390E+02
0.256637839157885E+02
0.250413112254970E+02
0.244154766737614E+02
0.237923640678373E+02
0.308816545965552E+02
0.308079237526012E+02
0.306617246351583E+02
0.304455357137794E+02
0.301629612497713E+02
0.298186039101791E+02
0.294179085932136E+02
0.289669874942818E+02
0.284724370750598E+02
0.279411573155695E+02
0.273801825182354E+02
0.267965311609027E+02
0.261970800846436E+02
0.255884658976829E+02
0.249770141185538E+02
0.243686944772328E+02
0.313363702185037E+02
0.312639825911079E+02
0.311204582458639E+02
0.309082526279081E+02
0.306309361732254E+02
0.302930676894631E+02
0.299000390695010E+02
0.294579012711677E+02
0.289731821275371E+02
0.284527062784898E+02
0.279034264222055E+02
0.273322733407262E+02
0.267460299760436E+02
0.261512324650824E+02
0.255540987197905E+02
0.249604830665794E+02
0.271563715551980E+02
0.270700054249448E+02
0.268986179988113E+02
0.266448503041286E+02
0.263125458151937E+02
0.259066183293475E+02
0.254328907289819E+02
0.248979155491405E+02
0.243087889172798E+02
0.236729690539053E+02
0.229981092116439E+02
0.222919128671711E+02
0.215620164092936E+02
0.208159017620733E+02
0.200608386173386E+02
0.193038534699336E+02
0.271744184047589E+02
0.270881218442834E+02
0.269168732434687E+02
0.266633130081505E+02
0.263312836961411E+02
0.259256979076898E+02
0.254523770596595E+02
0.249178719581179E+02
0.243292767308909E+02
0.236940473043595E+02
0.230198342988506E+02
0.223143381556141E+02
0.215851917395042E+02
0.208398728596058E+02
0.200856463881353E+02
0.193295331794523E+02
0.272284847239046E+02
0.271423960234183E+02
0.269715621945107E+02
0.267186217679603E+02
0.263874145366788E+02
0.259828494898702E+02
0.255107436245571E+02
0.249776425343406E+02
0.243906343219548E+02
0.237571680066628E+02
0.230848862912417E+02
0.223814804972799E+02
0.216545729153099E+02
0.209116290219789E+02
0.201598992623844E+02
0.194063876246321E+02
0.273183473870967E+02
0.272326023106977E+02
0.270624541324239E+02
0.268105382236175E+02
0.264806897188454E+02
0.260778115247065E+02
0.256077131963608E+02
0.250769315571619E+02
0.244925445832124E+02
0.238619897020279E+02
0.231928963541804E+02
0.224929406195272E+02
0.217697271584203E+02
0.210307009363703E+02
0.202830884594184E+02
0.195338657885892E+02
0.274436329576690E+02
0.273583631310535E+02
0.271891631807508E+02
0.269386639858364E+02
0.266106940583331E+02
0.262101476602295E+02
0.257428237766327E+02
0.252152467866425E+02
0.246344803196061E+02
0.240079454157446E+02
0.233432528180382E+02
0.226480571870352E+02
0.219299384940891E+02
0.211963130836111E+02
0.204543741712787E+02
0.197110591029058E+02
0.276038149900828E+02
0.275191463915709E+02
0.273511459203894E+02
0.271024385685973E+02
0.267768441711179E+02
0.263792456679814E+02
0.259154282109642E+02
0.253918999135666E+02
0.248157056888680E+02
0.241942452560979E+02
0.235351051149655E+02
0.228459122666401E+02
0.221342149429643E+02
0.214073928617870E+02
0.206725968245825E+02
0.199367150509916E+02
0.277982095712560E+02
0.277142611590572E+02
0.275476973423887E+02
0.273011357615832E+02
0.269783854179482E+02
0.265843151223212E+02
0.261246927782806E+02
0.256060062480062E+02
0.250352771937985E+02
0.244198789304477E+02
0.237673680540660E+02
0.230853376106859E+02
0.223812970728901E+02
0.216625816740796E+02
0.209362909740596E+02
0.202092541323970E+02
0.280259684934844E+02
0.279428509944763E+02
0.277779445086201E+02
0.275338577881661E+02
0.272143867400607E+02
0.268243831063700E+02
0.263695939739936E+02
0.258564828030416E+02
0.252920433075674E+02
0.246836171712277E+02
0.240387253247779E+02
0.233649205303074E+02
0.226696665473662E+02
0.219602464658437E+02
0.212437001436800E+02
0.205267883176346E+02
0.282860693865955E+02
0.282038842630526E+02
0.280408372212611E+02
0.277995265225754E+02
0.274837326224442E+02
0.270982871328375E+02
0.266489126154705E+02
0.261420438295849E+02
0.255846417015476E+02
0.249840109398094E+02
0.243476309784876E+02
0.236830079732619E+02
0.229975531313927E+02
0.222984899985556E+02
0.215927907103472E+02
0.208871388763518E+02
0.285773021565168E+02
0.284961407578442E+02
0.283351350199229E+02
0.280968710561318E+02
0.277851114350023E+02
0.274046644791874E+02
0.269612244060871E+02
0.264611928620053E+02
0.259114930442547E+02
0.253193872698923E+02
0.246923076261147E+02
0.240377074019689E+02
0.233629385891555E+02
0.226751581140472E+02
0.219812628823703E+02
0.212878514098678E+02
0.288982512006080E+02
0.288181940978853E+02
0.286593899488317E+02
0.284244110264370E+02
0.281169995266016E+02
0.277419372621050E+02
0.273048862207961E+02
0.268122104624432E+02
0.262707904701226E+02
0.256878407447296E+02
0.250707402251682E+02
0.244268832070147E+02
0.237635560522547E+02
0.230878423922591E+02
0.224065569813077E+02
0.217262060830764E+02
0.292472731128399E+02
0.291683896055208E+02
0.290119247815946E+02
0.287804353709999E+02
0.284776406979747E+02
0.281082928316300E+02
0.276780176371079E+02
0.271931371195028E+02
0.266604840929103E+02
0.260872198884365E+02
0.254806646273619E+02
0.248481477025749E+02
0.241968837641105E+02
0.235338769506682E+02
0.228658536010626E+02
0.221992214387802E+02
0.296224699636032E+02
0.295448177406431E+02
0.293908067669834E+02
0.291629765469711E+02
0.288650210655174E+02
0.285016594589717E+02
0.280784776384742E+02
0.276017511716032E+02
0.270782603668896E+02
0.265151081962210E+02
0.259195505214220E+02
0.252988462356446E+02
0.246601326166533E+02
0.240103286723736E+02
0.233560667887097E+02
0.227036507833609E+02
0.300216587386386E+02
0.299452836711371E+02
0.297938174645610E+02
0.295697807698483E+02
0.292768398471022E+02
0.289196778212467E+02
0.285038369588608E+02
0.280355421822562E+02
0.275215166739938E+02
0.269688001245627E+02
0.263845790264195E+02
0.257760365897763E+02
0.251502275761414E+02
0.245139808664754E+02
0.238738301481943E+02
0.232359709334432E+02
0.304423381340335E+02
0.303672741735284E+02
0.302184198581929E+02
0.299982754501015E+02
0.297104772364492E+02
0.293596694337264E+02
0.289513471993337E+02
0.284916808742535E+02
0.279873322157028E+02
0.274452730872739E+02
0.268726159438620E+02
0.262764636488390E+02
0.256637839157885E+02
0.250413112254970E+02
0.244154766737614E+02
0.237923640678373E+02
0.308816545965552E+02
0.308079237526012E+02
0.306617246351583E+02
0.304455357137794E+02
0.301629612497713E+02
0.298186039101791E+02
0.294179085932136E+02
0.289669874942818E+02
0.284724370750598E+02
0.279411573155695E+02
0.273801825182354E+02
0.267965311609027E+02
0.261970800846436E+02
0.255884658976829E+02
0.249770141185538E+02
0.243686944772328E+02
0.313363702185037E+02
0.312639825911079E+02
0.311204582458639E+02
0.309082526279081E+02
0.306309361732254E+02
0.302930676894631E+02
0.299000390695010E+02
0.294579012711677E+02
0.289731821275371E+02
0.284527062784898E+02
0.279034264222055E+02
0.273322733407262E+02
0.267460299760436E+02
0.261512324650824E+02
0.255540987197905E+02
0.249604830665794E+02
0.271563715551980E+02
0.270700054249448E+02
0.268986179988113E+02
0.266448503041286E+02
0.263125458151937E+02
0.259066183293475E+02
0.254328907289819E+02
0.248979155491405E+02
0.243087889172798E+02
0.236729690539053E+02
0.229981092116439E+02
0.222919128671711E+02
0.215620164092936E+02
0.208159017620733E+02
0.200608386173386E+02
0.193038534699336E+02
0.271744184047589E+02
0.270881218442834E+02
0.269168732434687E+02
0.266633130081505E+02
0.263312836961411E+02
0.259256979076898E+02
0.254523770596595E+02
0.249178719581179E+02
0.243292767308909E+02
0.236940473043595E+02
0.230198342988506E+02
0.223143381556141E+02
0.215851917395042E+02
0.208398728596058E+02
0.200856463881353E+02
0.193295331794523E+02
0.272284847239046E+02
0.271423960234183E+02
0.269715621945107E+02
0.267186217679603E+02
0.263874145366788E+02
0.259828494898702E+02
0.255107436245571E+02
0.249776425343406E+02
0.243906343219548E+02
0.237571680066628E+02
0.230848862912417E+02
0.223814804972799E+02
0.216545729153099E+02
0.209116290219789E+02
0.201598992623844E+02
0.194063876246321E+02
0.273183473870967E+02
0.272326023106977E+02
0.270624541324239E+02
0.268105382236175E+02
0.264806897188454E+02
0.260778115247065E+02
0.256077131963608E+02
0.250769315571619E+02
0.244925445832124E+02
0.238619897020279E+02
0.231928963541804E+02
0.224929406195272E+02
0.217697271584203E+02
0.210307009363703E+02
0.202830884594184E+02
0.195338657885892E+02
0.274436329576690E+02
0.273583631310535E+02
0.271891631807508E+02
0.269386639858364E+02
0.266106940583331E+02
0.262101476602295E+02
0.257428237766327E+02
0.252152467866425E+02
0.246344803196061E+02
0.240079454157446E+02
0.233432528180382E+02
0.226480571870352E+02
0.219299384940891E+02
0.211963130836111E+02
0.204543741712787E+02
0.197110591029058E+02
0.276038149900828E+02
0.275191463915709E+02
0.273511459203894E+02
0.271024385685973E+02
0.267768441711179E+02
0.263792456679814E+02
0.259154282109642E+02
0.253918999135666E+02
0.248157056888680E+02
0.241942452560979E+02
0.235351051149655E+02
0.228459122666401E+02
0.221342149429643E+02
0.214073928617870E+02
0.206725968245825E+02
0.199367150509916E+02
0.277982095712560E+02
0.277142611590572E+02
0.275476973423887E+02
0.273011357615832E+02
0.269783854179482E+02
0.265843151223212E+02
0.261246927782806E+02
0.256060062480062E+02
0.250352771937985E+02
0.244198789304477E+02
0.237673680540660E+02
0.230853376106859E+02
0.223812970728901E+02
0.216625816740796E+02
0.209362909740596E+02
0.202092541323970E+02
0.280259684934844E+02
0.279428509944763E+02
0.277779445086201E+02
0.275338577881661E+02
0.272143867400607E+02
0.268243831063700E+02
0.263695939739936E+02
0.258564828030416E+02
0.252920433075674E+02
0.246836171712277E+02
0.240387253247779E+02
0.233649205303074E+02
0.226696665473662E+02
0.219602464658437E+02
0.212437001436800E+02
0.205267883176346E+02
0.282860693865955E+02
0.282038842630526E+02
0.280408372212611E+02
0.277995265225754E+02
0.274837326224442E+02
0.270982871328375E+02
0.266489126154705E+02
0.261420438295849E+02
0.255846417015476E+02
0.249840109398094E+02
0.243476309784876E+02
0.236830079732619E+02
0.229975531313927E+02
0.222984899985556E+02
0.215927907103472E+02
0.208871388763518E+02
0.285773021565168E+02
0.284961407578442E+02
0.283351350199229E+02
0.280968710561318E+02
0.277851114350023E+02
0.274046644791874E+02
0.269612244060871E+02
0.264611928620053E+02
0.259114930442547E+02
0.253193872698923E+02
0.246923076261147E+02
0.240377074019689E+02
0.233629385891555E+02
0.226751581140472E+02
0.219812628823703E+02
0.212878514098678E+02
0.288982512006080E+02
0.288181940978853E+02
0.286593899488317E+02
0.284244110264370E+02
0.281169995266016E+02
0.277419372621050E+02
0.273048862207961E+02
0.268122104624432E+02
0.262707904701226E+02
0.256878407447296E+02
0.250707402251682E+02
0.244268832070147E+02
0.237635560522547E+02
0.230878423922591E+02
0.224065569813077E+02
0.217262060830764E+02
0.292472731128399E+02
0.291683896055208E+02
0.290119247815946E+02
0.287804353709999E+02
0.284776406979747E+02
0.281082928316300E+02
0.276780176371079E+02
0.271931371195028E+02
0.266604840929103E+02
0.260872198884365E+02
0.254806646273619E+02
0.248481477025749E+02
0.241968837641105E+02
0.235338769506682E+02
0.228658536010626E+02
0.221992214387802E+02
0.296224699636032E+02
0.295448177406431E+02
0.293908067669834E+02
0.291629765469711E+02
0.288650210655174E+02
0.285016594589717E+02
0.280784776384742E+02
0.276017511716032E+02
0.270782603668896E+02
0.265151081962210E+02
0.259195505214220E+02
0.252988462356446E+02
0.246601326166533E+02
0.240103286723736E+02
0.233560667887097E+02
0.227036507833609E+02
0.300216587386386E+02
0.299452836711371E+02
0.297938174645610E+02
0.295697807698483E+02
0.292768398471022E+02
0.289196778212467E+02
0.285038369588608E+02
0.280355421822562E+02
0.275215166739938E+02
0.269688001245627E+02
0.263845790264195E+02
0.257760365897763E+02
0.251502275761414E+02
0.245139808664754E+02
0.238738301481943E+02
0.232359709334432E+02
0.304423381340335E+02
0.303672741735284E+02
0.302184198581929E+02
0.299982754501015E+02
0.297104772364492E+02
0.293596694337264E+02
0.289513471993337E+02
0.284916808742535E+02
0.279873322157028E+02
0.274452730872739E+02
0.268726159438620E+02
0.262764636488390E+02
0.256637839157885E+02
0.250413112254970E+02
0.244154766737614E+02
0.237923640678373E+02
0.308816545965552E+02
0.308079237526012E+02
0.306617246351583E+02
0.304455357137794E+02
0.301629612497713E+02
0.298186039101791E+02
0.294179085932136E+02
0.289669874942818E+02
0.284724370750598E+02
0.279411573155695E+02
0.273801825182354E+02
0.267965311609027E+02
0.261970800846436E+02
0.255884658976829E+02
0.249770141185538E+02
0.243686944772328E+02
0.313363702185037E+02
0.312639825911079E+02
0.311204582458639E+02
0.309082526279081E+02
0.306309361732254E+02
0.302930676894631E+02
0.299000390695010E+02
0.294579012711677E+02
0.289731821275371E+02
0.284527062784898E+02
0.279034264222055E+02
0.273322733407262E+02
0.267460299760436E+02
0.261512324650824E+02
0.255540987197905E+02
0.249604830665794E+02
0.271563715551980E+02
0.270700054249448E+02
0.268986179988113E+02
0.266448503041286E+02
0.263125458151937E+02
0.259066183293475E+02
0.254328907289819E+02
0.248979155491405E+02
0.243087889172798E+02
0.236729690539053E+02
0.229981092116439E+02
0.222919128671711E+02
0.215620164092936E+02
0.208159017620733E+02
0.200608386173386E+02
0.193038534699336E+02
0.271744184047589E+02
0.270881218442834E+02
0.269168732434687E+02
0.266633130081505E+02
0.263312836961411E+02
0.259256979076898E+02
0.254523770596595E+02
0.249178719581179E+02
0.243292767308909E+02
0.236940473043595E+02
0.230198342988506E+02
0.223143381556141E+02
0.215851917395042E+02
0.208398728596058E+02
0.200856463881353E+02
0.193295331794523E+02
0.272284847239046E+02
0.271423960234183E+02
0.269715621945107E+02
0.267186217679603E+02
0.263874145366788E+02
0.259828494898702E+02
0.255107436245571E+02
0.249776425343406E+02
0.243906343219548E+02
0.237571680066628E+02
0.230848862912417E+02
0.223814804972799E+02
0.216545729153099E+02
0.209116290219789E+02
0.201598992623844E+02
0.194063876246321E+02
0.273183473870967E+02
0.272326023106977E+02
0.270624541324239E+02
0.268105382236175E+02
0.264806897188454E+02
0.260778115247065E+02
0.256077131963608E+02
0.250769315571619E+02
0.244925445832124E+02
0.238619897020279E+02
0.231928963541804E+02
0.224929406195272E+02
0.217697271584203E+02
0.210307009363703E+02
0.202830884594184E+02
0.195338657885892E+02
0.274436329576690E+02
0.273583631310535E+02
0.271891631807508E+02
0.269386639858364E+02
0.266106940583331E+02
0.262101476602295E+02
0.257428237766327E+02
0.252152467866425E+02
0.246344803196061E+02
0.240079454157446E+02
0.233432528180382E+02
0.226480571870352E+02
0.219299384940891E+02
0.211963130836111E+02
0.204543741712787E+02
0.197110591029058E+02
0.276038149900828E+02
0.275191463915709E+02
0.273511459203894E+02
0.271024385685973E+02
0.267768441711179E+02
0.263792456679814E+02
0.259154282109642E+02
0.253918999135666E+02
0.248157056888680E+02
0.241942452560979E+02
0.235351051149655E+02
0.228459122666401E+02
0.221342149429643E+02
0.214073928617870E+02
0.206725968245825E+02
0.199367150509916E+02
0.277982095712560E+02
0.277142611590572E+02
0.275476973423887E+02
0.273011357615832E+02
0.269783854179482E+02
0.265843151223212E+02
0.261246927782806E+02
0.256060062480062E+02
0.250352771937985E+02
0.244198789304477E+02
0.237673680540660E+02
0.230853376106859E+02
0.223812970728901E+02
0.216625816740796E+02
0.209362909740596E+02
0.202092541323970E+02
0.280259684934844E+02
0.279428509944763E+02
0.277779445086201E+02
0.275338577881661E+02
0.272143867400607E+02
0.268243831063700E+02
0.263695939739936E+02
0.258564828030416E+02
0.252920433075674E+02
0.246836171712277E+02
0.240387253247779E+02
0.233649205303074E+02
0.226696665473662E+02
0.219602464658437E+02
0.212437001436800E+02
0.205267883176346E+02
0.282860693865955E+02
0.282038842630526E+02
0.280408372212611E+02
0.277995265225754E+02
0.274837326224442E+02
0.270982871328375E+02
0.266489126154705E+02
0.261420438295849E+02
0.255846417015476E+02
0.249840109398094E+02
0.243476309784876E+02
0.236830079732619E+02
0.229975531313927E+02
0.222984899985556E+02
0.215927907103472E+02
0.208871388763518E+02
0.285773021565168E+02
0.284961407578442E+02
0.283351350199229E+02
0.280968710561318E+02
0.277851114350023E+02
0.274046644791874E+02
0.269612244060871E+02
0.264611928620053E+02
0.259114930442547E+02
0.253193872698923E+02
0.246923076261147E+02
0.240377074019689E+02
0.233629385891555E+02
0.226751581140472E+02
0.219812628823703E+02
0.212878514098678E+02
0.288982512006080E+02
0.288181940978853E+02
0.286593899488317E+02
0.284244110264370E+02
0.281169995266016E+02
0.277419372621050E+02
0.273048862207961E+02
0.268122104624432E+02
0.262707904701226E+02
0.256878407447296E+02
0.250707402251682E+02
0.244268832070147E+02
0.237635560522547E+02
0.230878423922591E+02
0.224065569813077E+02
0.217262060830764E+02
0.292472731128399E+02
0.291683896055208E+02
0.290119247815946E+02
0.287804353709999E+02
0.284776406979747E+02
0.281082928316300E+02
0.276780176371079E+02
0.271931371195028E+02
0.266604840929103E+02
0.260872198884365E+02
0.254806646273619E+02
0.248481477025749E+02
0.241968837641105E+02
0.235338769506682E+02
0.228658536010626E+02
0.221992214387802E+02
0.296224699636032E+02
0.295448177406431E+02
0.293908067669834E+02
0.291629765469711E+02
0.288650210655174E+02
0.285016594589717E+02
0.280784776384742E+02
0.276017511716032E+02
0.270782603668896E+02
0.265151081962210E+02
0.259195505214220E+02
0.252988462356446E+02
0.246601326166533E+02
0.240103286723736E+02
0.233560667887097E+02
0.227036507833609E+02
0.300216587386386E+02
0.299452836711371E+02
0.297938174645610E+02
0.295697807698483E+02
0.292768398471022E+02
0.289196778212467E+02
0.285038369588608E+02
0.280355421822562E+02
0.275215166739938E+02
0.269688001245627E+02
0.263845790264195E+02
0.257760365897763E+02
0.251502275761414E+02
0.245139808664754E+02
0.238738301481943E+02
0.232359709334432E+02
0.304423381340335E+02
0.303672741735284E+02
0.302184198581929E+02
0.299982754501015E+02
0.297104772364492E+02
0.293596694337264E+02
0.289513471993337E+02
0.284916808742535E+02
0.279873322157028E+02
0.274452730872739E+02
0.268726159438620E+02
0.262764636488390E+02
0.256637839157885E+02
0.250413112254970E+02
0.244154766737614E+02
0.237923640678373E+02
0.308816545965552E+02
0.308079237526012E+02
0.306617246351583E+02
0.304455357137794E+02
0.301629612497713E+02
0.298186039101791E+02
0.294179085932136E+02
0.289669874942818E+02
0.284724370750598E+02
0.279411573155695E+02
0.273801825182354E+02
0.267965311609027E+02
0.261970800846436E+02
0.255884658976829E+02
0.249770141185538E+02
0.243686944772328E+02
0.313363702185037E+02
0.312639825911079E+02
0.311204582458639E+02
0.309082526279081E+02
0.306309361732254E+02
0.302930676894631E+02
0.299000390695010E+02
0.294579012711677E+02
0.289731821275371E+02
0.284527062784898E+02
0.279034264222055E+02
0.273322733407262E+02
0.267460299760436E+02
0.261512324650824E+02
0.255540987197905E+02
0.249604830665794E+02
</DataArray>
</PointData>
</Piece>
</RectilinearGrid>
</VTKFile>
