<?xml version="1.0"?>
<VTKFile type="RectilinearGrid" version="0.1" byte_order="LittleEndian">
<RectilinearGrid WholeExtent="0   63    0   63    0    3">
<Piece Extent="31   47    0   15    0    3">
<Coordinates>
<DataArray Name="x" type="Float32" format="ascii">
0.310000000000000E+01
0.320000000000000E+01
0.330000000000000E+01
0.340000000000000E+01
0.350000000000000E+01
0.360000000000000E+01
0.370000000000000E+01
0.380000000000000E+01
0.390000000000000E+01
0.400000000000000E+01
0.410000000000000E+01
0.420000000000000E+01
0.430000000000000E+01
0.440000000000000E+01
0.450000000000000E+01
0.460000000000000E+01
0.470000000000000E+01
</DataArray>
<DataArray Name="y" type="Float32" format="ascii">
0.000000000000000E+00
0.100000000000000E+00
0.200000000000000E+00
0.300000000000000E+00
0.400000000000000E+00
0.500000000000000E+00
0.600000000000000E+00
0.700000000000000E+00
0.800000000000000E+00
0.900000000000000E+00
0.100000000000000E+01
0.110000000000000E+01
0.120000000000000E+01
0.130000000000000E+01
0.140000000000000E+01
0.150000000000000E+01
</DataArray>
<DataArray Name="z" type="Float32" format="ascii">
0.000000000000000E+00
0.100000000000000E+00
0.200000000000000E+00
0.300000000000000E+00
</DataArray>
</Coordinates>
<PointData Scalars="c">
<DataArray type="Float32" Name="c" format="ascii">
0.283436055438468E+02
0.283612771541294E+02
0.284142261315045E+02
0.285022683630457E+02
0.286250988532558E+02
0.287822949164208E+02
0.289733198819937E+02
0.291975265907550E+02
0.294541596886224E+02
0.297423554308825E+02
0.300611374071072E+02
0.304094063186644E+02
0.307859217414923E+02
0.311892737661181E+02
0.316178426257425E+02
0.320697450137460E+02
0.325427668578425E+02
0.281793999099383E+02
0.281971955482735E+02
0.282505150961346E+02
0.283391699812226E+02
0.284628479229021E+02
0.286211163380845E+02
0.288134263274318E+02
0.290391165032980E+02
0.292974156472480E+02
0.295874428894071E+02
0.299082037990796E+02
0.302585804985458E+02
0.306373137145520E+02
0.310429746440952E+02
0.314739247336215E+02
0.319282620658618E+02
0.324037541199162E+02
0.279096433831170E+02
0.279276449224067E+02
0.279815796301269E+02
0.280712514418222E+02
0.281963358406814E+02
0.283563836269956E+02
0.285508253822246E+02
0.287789758610581E+02
0.290400372667410E+02
0.293331000669006E+02
0.296571397039330E+02
0.300110072780392E+02
0.303934120869126E+02
0.308028938730207E+02
0.312377828582540E+02
0.316961462485842E+02
0.321757209720069E+02
0.275399714369966E+02
0.275582596244866E+02
0.276130506731509E+02
0.277041379009239E+02
0.278311794577768E+02
0.279937026206032E+02
0.281911089472571E+02
0.284226794821512E+02
0.286875789212473E+02
0.289848573429174E+02
0.293134478077445E+02
0.296721578569806E+02
0.300596527503917E+02
0.304744282584523E+02
0.309147710619353E+02
0.313787054259656E+02
0.318639259093173E+02
0.270778121843295E+02
0.270964663652376E+02
0.271523506841487E+02
0.272452445808699E+02
0.273747835621961E+02
0.275404642011149E+02
0.277416502146372E+02
0.279775787569153E+02
0.282473657712415E+02
0.285500089390789E+02
0.288843864610854E+02
0.292492496358312E+02
0.296432070203581E+02
0.300646979411759E+02
0.305119533750108E+02
0.309829428475002E+02
0.314753071087787E+02
0.265319819714541E+02
0.265510799594474E+02
0.266082898216582E+02
0.267033736774044E+02
0.268359387935330E+02
0.270054434895474E+02
0.272112044019525E+02
0.274524041714964E+02
0.277280983132495E+02
0.280372197193265E+02
0.283785789419382E+02
0.287508581413788E+02
0.291525964124457E+02
0.295821642010773E+02
0.300377247903141E+02
0.305171814825309E+02
0.310181102368507E+02
0.259122381415431E+02
0.259318562428070E+02
0.259906193199138E+02
0.260882684963937E+02
0.262243768348240E+02
0.263983563783545E+02
0.266094669009532E+02
0.268568253366464E+02
0.271394145412617E+02
0.274560897249576E+02
0.278055805941658E+02
0.281864869875481E+02
0.285972656338015E+02
0.290362056757908E+02
0.295013908941132E+02
0.299906472346686E+02
0.305014754023844E+02
0.252288296144036E+02
0.252490427909648E+02
0.253095826245067E+02
0.254101652801574E+02
0.255503231984659E+02
0.257294135392641E+02
0.259466287621419E+02
0.262010081959919E+02
0.264914491177257E+02
0.268167155398134E+02
0.271754426111917E+02
0.275661342949711E+02
0.279871518489719E+02
0.284366906757286E+02
0.289127434241931E+02
0.294130479257652E+02
0.299350197352162E+02
0.244920825840935E+02
0.245129647211563E+02
0.245755015056235E+02
0.246793798387979E+02
0.248240845804761E+02
0.250089087034295E+02
0.252329661019705E+02
0.254952057599859E+02
0.257944256330520E+02
0.261292842737943E+02
0.264983079420479E+02
0.268998907182161E+02
0.273322850266097E+02
0.277935800470552E+02
0.282816658424119E+02
0.287941817650740E+02
0.293284489289596E+02
0.237120513566080E+02
0.237336755796185E+02
0.237984270953985E+02
0.239059588400396E+02
0.240557005092864E+02
0.242468707811459E+02
0.244784928124897E+02
0.247494115329437E+02
0.250583108870841E+02
0.254037288461657E+02
0.257840677344838E+02
0.261975972167818E+02
0.266424472153190E+02
0.271165881361574E+02
0.276177961754460E+02
0.281436022540109E+02
0.286912243930591E+02
0.228982545538672E+02
0.229206935252037E+02
0.229878760128103E+02
0.230994158442517E+02
0.232546792714209E+02
0.234527996744606E+02
0.236926962763726E+02
0.239730951678607E+02
0.242925505447863E+02
0.246494637276710E+02
0.250420972732530E+02
0.254685813221023E+02
0.259269092922578E+02
0.264149201895874E+02
0.269302652483208E+02
0.274703574429201E+02
0.280323037241336E+02
0.220595061947965E+02
0.220828323083775E+02
0.221526610409757E+02
0.222685614938731E+02
0.224298274485747E+02
0.226354950262975E+02
0.228843652271430E+02
0.231750293756390E+02
0.235058950735880E+02
0.238752099268960E+02
0.242810800769648E+02
0.247214804440677E+02
0.251942536119376E+02
0.256970945057463E+02
0.262275185212693E+02
0.267828116502028E+02
0.273599625121103E+02
0.212038410079887E+02
0.212281263934535E+02
0.213008156852490E+02
0.214214271547087E+02
0.215891723232057E+02
0.218029771160749E+02
0.220615089136633E+02
0.223632071961422E+02
0.227063150204009E+02
0.230889082343431E+02
0.235089191293696E+02
0.239641511638228E+02
0.244522814822731E+02
0.249708482553328E+02
0.255172204463350E+02
0.260885485683406E+02
0.266816964214622E+02
0.203385248604199E+02
0.203638411075611E+02
0.204396034930401E+02
0.205652728868884E+02
0.207399680283966E+02
0.209624907786722E+02
0.212313584522198E+02
0.215448405285314E+02
0.219009965495545E+02
0.222977116805745E+02
0.227327262490153E+02
0.232036555774004E+02
0.237079966060539E+02
0.242431181947548E+02
0.248062326652853E+02
0.253943471856147E+02
0.260041950917115E+02
0.194701350540265E+02
0.194965525735788E+02
0.195755969090705E+02
0.197066645472888E+02
0.198887702842973E+02
0.201205772429786E+02
0.204004353307703E+02
0.207264249690508E+02
0.210964023892703E+02
0.215080424715603E+02
0.219588749917478E+02
0.224463102311004E+02
0.229676501891395E+02
0.235200821465941E+02
0.241006521062306E+02
0.247062167726489E+02
0.253333743042495E+02
0.186046916132220E+02
0.186322785628421E+02
0.187148068399780E+02
0.188516012605902E+02
0.190415610463258E+02
0.192831953273309E+02
0.195746686380356E+02
0.199138526863812E+02
0.202983800948121E+02
0.207256955061685E+02
0.211930994044883E+02
0.216977801949241E+02
0.222368305014467E+02
0.228072442822402E+02
0.234058922697933E+02
0.240294744844563E+02
0.246744502276300E+02
0.283436055438468E+02
0.283612771541294E+02
0.284142261315045E+02
0.285022683630457E+02
0.286250988532558E+02
0.287822949164208E+02
0.289733198819937E+02
0.291975265907550E+02
0.294541596886224E+02
0.297423554308825E+02
0.300611374071072E+02
0.304094063186644E+02
0.307859217414923E+02
0.311892737661181E+02
0.316178426257425E+02
0.320697450137460E+02
0.325427668578425E+02
0.281793999099383E+02
0.281971955482735E+02
0.282505150961346E+02
0.283391699812226E+02
0.284628479229021E+02
0.286211163380845E+02
0.288134263274318E+02
0.290391165032980E+02
0.292974156472480E+02
0.295874428894071E+02
0.299082037990796E+02
0.302585804985458E+02
0.306373137145520E+02
0.310429746440952E+02
0.314739247336215E+02
0.319282620658618E+02
0.324037541199162E+02
0.279096433831170E+02
0.279276449224067E+02
0.279815796301269E+02
0.280712514418222E+02
0.281963358406814E+02
0.283563836269956E+02
0.285508253822246E+02
0.287789758610581E+02
0.290400372667410E+02
0.293331000669006E+02
0.296571397039330E+02
0.300110072780392E+02
0.303934120869126E+02
0.308028938730207E+02
0.312377828582540E+02
0.316961462485842E+02
0.321757209720069E+02
0.275399714369966E+02
0.275582596244866E+02
0.276130506731509E+02
0.277041379009239E+02
0.278311794577768E+02
0.279937026206032E+02
0.281911089472571E+02
0.284226794821512E+02
0.286875789212473E+02
0.289848573429174E+02
0.293134478077445E+02
0.296721578569806E+02
0.300596527503917E+02
0.304744282584523E+02
0.309147710619353E+02
0.313787054259656E+02
0.318639259093173E+02
0.270778121843295E+02
0.270964663652376E+02
0.271523506841487E+02
0.272452445808699E+02
0.273747835621961E+02
0.275404642011149E+02
0.277416502146372E+02
0.279775787569153E+02
0.282473657712415E+02
0.285500089390789E+02
0.288843864610854E+02
0.292492496358312E+02
0.296432070203581E+02
0.300646979411759E+02
0.305119533750108E+02
0.309829428475002E+02
0.314753071087787E+02
0.265319819714541E+02
0.265510799594474E+02
0.266082898216582E+02
0.267033736774044E+02
0.268359387935330E+02
0.270054434895474E+02
0.272112044019525E+02
0.274524041714964E+02
0.277280983132495E+02
0.280372197193265E+02
0.283785789419382E+02
0.287508581413788E+02
0.291525964124457E+02
0.295821642010773E+02
0.300377247903141E+02
0.305171814825309E+02
0.310181102368507E+02
0.259122381415431E+02
0.259318562428070E+02
0.259906193199138E+02
0.260882684963937E+02
0.262243768348240E+02
0.263983563783545E+02
0.266094669009532E+02
0.268568253366464E+02
0.271394145412617E+02
0.274560897249576E+02
0.278055805941658E+02
0.281864869875481E+02
0.285972656338015E+02
0.290362056757908E+02
0.295013908941132E+02
0.299906472346686E+02
0.305014754023844E+02
0.252288296144036E+02
0.252490427909648E+02
0.253095826245067E+02
0.254101652801574E+02
0.255503231984659E+02
0.257294135392641E+02
0.259466287621419E+02
0.262010081959919E+02
0.264914491177257E+02
0.268167155398134E+02
0.271754426111917E+02
0.275661342949711E+02
0.279871518489719E+02
0.284366906757286E+02
0.289127434241931E+02
0.294130479257652E+02
0.299350197352162E+02
0.244920825840935E+02
0.245129647211563E+02
0.245755015056235E+02
0.246793798387979E+02
0.248240845804761E+02
0.250089087034295E+02
0.252329661019705E+02
0.254952057599859E+02
0.257944256330520E+02
0.261292842737943E+02
0.264983079420479E+02
0.268998907182161E+02
0.273322850266097E+02
0.277935800470552E+02
0.282816658424119E+02
0.287941817650740E+02
0.293284489289596E+02
0.237120513566080E+02
0.237336755796185E+02
0.237984270953985E+02
0.239059588400396E+02
0.240557005092864E+02
0.242468707811459E+02
0.244784928124897E+02
0.247494115329437E+02
0.250583108870841E+02
0.254037288461657E+02
0.257840677344838E+02
0.261975972167818E+02
0.266424472153190E+02
0.271165881361574E+02
0.276177961754460E+02
0.281436022540109E+02
0.286912243930591E+02
0.228982545538672E+02
0.229206935252037E+02
0.229878760128103E+02
0.230994158442517E+02
0.232546792714209E+02
0.234527996744606E+02
0.236926962763726E+02
0.239730951678607E+02
0.242925505447863E+02
0.246494637276710E+02
0.250420972732530E+02
0.254685813221023E+02
0.259269092922578E+02
0.264149201895874E+02
0.269302652483208E+02
0.274703574429201E+02
0.280323037241336E+02
0.220595061947965E+02
0.220828323083775E+02
0.221526610409757E+02
0.222685614938731E+02
0.224298274485747E+02
0.226354950262975E+02
0.228843652271430E+02
0.231750293756390E+02
0.235058950735880E+02
0.238752099268960E+02
0.242810800769648E+02
0.247214804440677E+02
0.251942536119376E+02
0.256970945057463E+02
0.262275185212693E+02
0.267828116502028E+02
0.273599625121103E+02
0.212038410079887E+02
0.212281263934535E+02
0.213008156852490E+02
0.214214271547087E+02
0.215891723232057E+02
0.218029771160749E+02
0.220615089136633E+02
0.223632071961422E+02
0.227063150204009E+02
0.230889082343431E+02
0.235089191293696E+02
0.239641511638228E+02
0.244522814822731E+02
0.249708482553328E+02
0.255172204463350E+02
0.260885485683406E+02
0.266816964214622E+02
0.203385248604199E+02
0.203638411075611E+02
0.204396034930401E+02
0.205652728868884E+02
0.207399680283966E+02
0.209624907786722E+02
0.212313584522198E+02
0.215448405285314E+02
0.219009965495545E+02
0.222977116805745E+02
0.227327262490153E+02
0.232036555774004E+02
0.237079966060539E+02
0.242431181947548E+02
0.248062326652853E+02
0.253943471856147E+02
0.260041950917115E+02
0.194701350540265E+02
0.194965525735788E+02
0.195755969090705E+02
0.197066645472888E+02
0.198887702842973E+02
0.201205772429786E+02
0.204004353307703E+02
0.207264249690508E+02
0.210964023892703E+02
0.215080424715603E+02
0.219588749917478E+02
0.224463102311004E+02
0.229676501891395E+02
0.235200821465941E+02
0.241006521062306E+02
0.247062167726489E+02
0.253333743042495E+02
0.186046916132220E+02
0.186322785628421E+02
0.187148068399780E+02
0.188516012605902E+02
0.190415610463258E+02
0.192831953273309E+02
0.195746686380356E+02
0.199138526863812E+02
0.202983800948121E+02
0.207256955061685E+02
0.211930994044883E+02
0.216977801949241E+02
0.222368305014467E+02
0.228072442822402E+02
0.234058922697933E+02
0.240294744844563E+02
0.246744502276300E+02
0.283436055438468E+02
0.283612771541294E+02
0.284142261315045E+02
0.285022683630457E+02
0.286250988532558E+02
0.287822949164208E+02
0.289733198819937E+02
0.291975265907550E+02
0.294541596886224E+02
0.297423554308825E+02
0.300611374071072E+02
0.304094063186644E+02
0.307859217414923E+02
0.311892737661181E+02
0.316178426257425E+02
0.320697450137460E+02
0.325427668578425E+02
0.281793999099383E+02
0.281971955482735E+02
0.282505150961346E+02
0.283391699812226E+02
0.284628479229021E+02
0.286211163380845E+02
0.288134263274318E+02
0.290391165032980E+02
0.292974156472480E+02
0.295874428894071E+02
0.299082037990796E+02
0.302585804985458E+02
0.306373137145520E+02
0.310429746440952E+02
0.314739247336215E+02
0.319282620658618E+02
0.324037541199162E+02
0.279096433831170E+02
0.279276449224067E+02
0.279815796301269E+02
0.280712514418222E+02
0.281963358406814E+02
0.283563836269956E+02
0.285508253822246E+02
0.287789758610581E+02
0.290400372667410E+02
0.293331000669006E+02
0.296571397039330E+02
0.300110072780392E+02
0.303934120869126E+02
0.308028938730207E+02
0.312377828582540E+02
0.316961462485842E+02
0.321757209720069E+02
0.275399714369966E+02
0.275582596244866E+02
0.276130506731509E+02
0.277041379009239E+02
0.278311794577768E+02
0.279937026206032E+02
0.281911089472571E+02
0.284226794821512E+02
0.286875789212473E+02
0.289848573429174E+02
0.293134478077445E+02
0.296721578569806E+02
0.300596527503917E+02
0.304744282584523E+02
0.309147710619353E+02
0.313787054259656E+02
0.318639259093173E+02
0.270778121843295E+02
0.270964663652376E+02
0.271523506841487E+02
0.272452445808699E+02
0.273747835621961E+02
0.275404642011149E+02
0.277416502146372E+02
0.279775787569153E+02
0.282473657712415E+02
0.285500089390789E+02
0.288843864610854E+02
0.292492496358312E+02
0.296432070203581E+02
0.300646979411759E+02
0.305119533750108E+02
0.309829428475002E+02
0.314753071087787E+02
0.265319819714541E+02
0.265510799594474E+02
0.266082898216582E+02
0.267033736774044E+02
0.268359387935330E+02
0.270054434895474E+02
0.272112044019525E+02
0.274524041714964E+02
0.277280983132495E+02
0.280372197193265E+02
0.283785789419382E+02
0.287508581413788E+02
0.291525964124457E+02
0.295821642010773E+02
0.300377247903141E+02
0.305171814825309E+02
0.310181102368507E+02
0.259122381415431E+02
0.259318562428070E+02
0.259906193199138E+02
0.260882684963937E+02
0.262243768348240E+02
0.263983563783545E+02
0.266094669009532E+02
0.268568253366464E+02
0.271394145412617E+02
0.274560897249576E+02
0.278055805941658E+02
0.281864869875481E+02
0.285972656338015E+02
0.290362056757908E+02
0.295013908941132E+02
0.299906472346686E+02
0.305014754023844E+02
0.252288296144036E+02
0.252490427909648E+02
0.253095826245067E+02
0.254101652801574E+02
0.255503231984659E+02
0.257294135392641E+02
0.259466287621419E+02
0.262010081959919E+02
0.264914491177257E+02
0.268167155398134E+02
0.271754426111917E+02
0.275661342949711E+02
0.279871518489719E+02
0.284366906757286E+02
0.289127434241931E+02
0.294130479257652E+02
0.299350197352162E+02
0.244920825840935E+02
0.245129647211563E+02
0.245755015056235E+02
0.246793798387979E+02
0.248240845804761E+02
0.250089087034295E+02
0.252329661019705E+02
0.254952057599859E+02
0.257944256330520E+02
0.261292842737943E+02
0.264983079420479E+02
0.268998907182161E+02
0.273322850266097E+02
0.277935800470552E+02
0.282816658424119E+02
0.287941817650740E+02
0.293284489289596E+02
0.237120513566080E+02
0.237336755796185E+02
0.237984270953985E+02
0.239059588400396E+02
0.240557005092864E+02
0.242468707811459E+02
0.244784928124897E+02
0.247494115329437E+02
0.250583108870841E+02
0.254037288461657E+02
0.257840677344838E+02
0.261975972167818E+02
0.266424472153190E+02
0.271165881361574E+02
0.276177961754460E+02
0.281436022540109E+02
0.286912243930591E+02
0.228982545538672E+02
0.229206935252037E+02
0.229878760128103E+02
0.230994158442517E+02
0.232546792714209E+02
0.234527996744606E+02
0.236926962763726E+02
0.239730951678607E+02
0.242925505447863E+02
0.246494637276710E+02
0.250420972732530E+02
0.254685813221023E+02
0.259269092922578E+02
0.264149201895874E+02
0.269302652483208E+02
0.274703574429201E+02
0.280323037241336E+02
0.220595061947965E+02
0.220828323083775E+02
0.221526610409757E+02
0.222685614938731E+02
0.224298274485747E+02
0.226354950262975E+02
0.228843652271430E+02
0.231750293756390E+02
0.235058950735880E+02
0.238752099268960E+02
0.242810800769648E+02
0.247214804440677E+02
0.251942536119376E+02
0.256970945057463E+02
0.262275185212693E+02
0.267828116502028E+02
0.273599625121103E+02
0.212038410079887E+02
0.212281263934535E+02
0.213008156852490E+02
0.214214271547087E+02
0.215891723232057E+02
0.218029771160749E+02
0.220615089136633E+02
0.223632071961422E+02
0.227063150204009E+02
0.230889082343431E+02
0.235089191293696E+02
0.239641511638228E+02
0.244522814822731E+02
0.249708482553328E+02
0.255172204463350E+02
0.260885485683406E+02
0.266816964214622E+02
0.203385248604199E+02
0.203638411075611E+02
0.204396034930401E+02
0.205652728868884E+02
0.207399680283966E+02
0.209624907786722E+02
0.212313584522198E+02
0.215448405285314E+02
0.219009965495545E+02
0.222977116805745E+02
0.227327262490153E+02
0.232036555774004E+02
0.237079966060539E+02
0.242431181947548E+02
0.248062326652853E+02
0.253943471856147E+02
0.260041950917115E+02
0.194701350540265E+02
0.194965525735788E+02
0.195755969090705E+02
0.197066645472888E+02
0.198887702842973E+02
0.201205772429786E+02
0.204004353307703E+02
0.207264249690508E+02
0.210964023892703E+02
0.215080424715603E+02
0.219588749917478E+02
0.224463102311004E+02
0.229676501891395E+02
0.235200821465941E+02
0.241006521062306E+02
0.247062167726489E+02
0.253333743042495E+02
0.186046916132220E+02
0.186322785628421E+02
0.187148068399780E+02
0.188516012605902E+02
0.190415610463258E+02
0.192831953273309E+02
0.195746686380356E+02
0.199138526863812E+02
0.202983800948121E+02
0.207256955061685E+02
0.211930994044883E+02
0.216977801949241E+02
0.222368305014467E+02
0.228072442822402E+02
0.234058922697933E+02
0.240294744844563E+02
0.246744502276300E+02
0.283436055438468E+02
0.283612771541294E+02
0.284142261315045E+02
0.285022683630457E+02
0.286250988532558E+02
0.287822949164208E+02
0.289733198819937E+02
0.291975265907550E+02
0.294541596886224E+02
0.297423554308825E+02
0.300611374071072E+02
0.304094063186644E+02
0.307859217414923E+02
0.311892737661181E+02
0.316178426257425E+02
0.320697450137460E+02
0.325427668578425E+02
0.281793999099383E+02
0.281971955482735E+02
0.282505150961346E+02
0.283391699812226E+02
0.284628479229021E+02
0.286211163380845E+02
0.288134263274318E+02
0.290391165032980E+02
0.292974156472480E+02
0.295874428894071E+02
0.299082037990796E+02
0.302585804985458E+02
0.306373137145520E+02
0.310429746440952E+02
0.314739247336215E+02
0.319282620658618E+02
0.324037541199162E+02
0.279096433831170E+02
0.279276449224067E+02
0.279815796301269E+02
0.280712514418222E+02
0.281963358406814E+02
0.283563836269956E+02
0.285508253822246E+02
0.287789758610581E+02
0.290400372667410E+02
0.293331000669006E+02
0.296571397039330E+02
0.300110072780392E+02
0.303934120869126E+02
0.308028938730207E+02
0.312377828582540E+02
0.316961462485842E+02
0.321757209720069E+02
0.275399714369966E+02
0.275582596244866E+02
0.276130506731509E+02
0.277041379009239E+02
0.278311794577768E+02
0.279937026206032E+02
0.281911089472571E+02
0.284226794821512E+02
0.286875789212473E+02
0.289848573429174E+02
0.293134478077445E+02
0.296721578569806E+02
0.300596527503917E+02
0.304744282584523E+02
0.309147710619353E+02
0.313787054259656E+02
0.318639259093173E+02
0.270778121843295E+02
0.270964663652376E+02
0.271523506841487E+02
0.272452445808699E+02
0.273747835621961E+02
0.275404642011149E+02
0.277416502146372E+02
0.279775787569153E+02
0.282473657712415E+02
0.285500089390789E+02
0.288843864610854E+02
0.292492496358312E+02
0.296432070203581E+02
0.300646979411759E+02
0.305119533750108E+02
0.309829428475002E+02
0.314753071087787E+02
0.265319819714541E+02
0.265510799594474E+02
0.266082898216582E+02
0.267033736774044E+02
0.268359387935330E+02
0.270054434895474E+02
0.272112044019525E+02
0.274524041714964E+02
0.277280983132495E+02
0.280372197193265E+02
0.283785789419382E+02
0.287508581413788E+02
0.291525964124457E+02
0.295821642010773E+02
0.300377247903141E+02
0.305171814825309E+02
0.310181102368507E+02
0.259122381415431E+02
0.259318562428070E+02
0.259906193199138E+02
0.260882684963937E+02
0.262243768348240E+02
0.263983563783545E+02
0.266094669009532E+02
0.268568253366464E+02
0.271394145412617E+02
0.274560897249576E+02
0.278055805941658E+02
0.281864869875481E+02
0.285972656338015E+02
0.290362056757908E+02
0.295013908941132E+02
0.299906472346686E+02
0.305014754023844E+02
0.252288296144036E+02
0.252490427909648E+02
0.253095826245067E+02
0.254101652801574E+02
0.255503231984659E+02
0.257294135392641E+02
0.259466287621419E+02
0.262010081959919E+02
0.264914491177257E+02
0.268167155398134E+02
0.271754426111917E+02
0.275661342949711E+02
0.279871518489719E+02
0.284366906757286E+02
0.289127434241931E+02
0.294130479257652E+02
0.299350197352162E+02
0.244920825840935E+02
0.245129647211563E+02
0.245755015056235E+02
0.246793798387979E+02
0.248240845804761E+02
0.250089087034295E+02
0.252329661019705E+02
0.254952057599859E+02
0.257944256330520E+02
0.261292842737943E+02
0.264983079420479E+02
0.268998907182161E+02
0.273322850266097E+02
0.277935800470552E+02
0.282816658424119E+02
0.287941817650740E+02
0.293284489289596E+02
0.237120513566080E+02
0.237336755796185E+02
0.237984270953985E+02
0.239059588400396E+02
0.240557005092864E+02
0.242468707811459E+02
0.244784928124897E+02
0.247494115329437E+02
0.250583108870841E+02
0.254037288461657E+02
0.257840677344838E+02
0.261975972167818E+02
0.266424472153190E+02
0.271165881361574E+02
0.276177961754460E+02
0.281436022540109E+02
0.286912243930591E+02
0.228982545538672E+02
0.229206935252037E+02
0.229878760128103E+02
0.230994158442517E+02
0.232546792714209E+02
0.234527996744606E+02
0.236926962763726E+02
0.239730951678607E+02
0.242925505447863E+02
0.246494637276710E+02
0.250420972732530E+02
0.254685813221023E+02
0.259269092922578E+02
0.264149201895874E+02
0.269302652483208E+02
0.274703574429201E+02
0.280323037241336E+02
0.220595061947965E+02
0.220828323083775E+02
0.221526610409757E+02
0.222685614938731E+02
0.224298274485747E+02
0.226354950262975E+02
0.228843652271430E+02
0.231750293756390E+02
0.235058950735880E+02
0.238752099268960E+02
0.242810800769648E+02
0.247214804440677E+02
0.251942536119376E+02
0.256970945057463E+02
0.262275185212693E+02
0.267828116502028E+02
0.273599625121103E+02
0.212038410079887E+02
0.212281263934535E+02
0.213008156852490E+02
0.214214271547087E+02
0.215891723232057E+02
0.218029771160749E+02
0.220615089136633E+02
0.223632071961422E+02
0.227063150204009E+02
0.230889082343431E+02
0.235089191293696E+02
0.239641511638228E+02
0.244522814822731E+02
0.249708482553328E+02
0.255172204463350E+02
0.260885485683406E+02
0.266816964214622E+02
0.203385248604199E+02
0.203638411075611E+02
0.204396034930401E+02
0.205652728868884E+02
0.207399680283966E+02
0.209624907786722E+02
0.212313584522198E+02
0.215448405285314E+02
0.219009965495545E+02
0.222977116805745E+02
0.227327262490153E+02
0.232036555774004E+02
0.237079966060539E+02
0.242431181947548E+02
0.248062326652853E+02
0.253943471856147E+02
0.260041950917115E+02
0.194701350540265E+02
0.194965525735788E+02
0.195755969090705E+02
0.197066645472888E+02
0.198887702842973E+02
0.201205772429786E+02
0.204004353307703E+02
0.207264249690508E+02
0.210964023892703E+02
0.215080424715603E+02
0.219588749917478E+02
0.224463102311004E+02
0.229676501891395E+02
0.235200821465941E+02
0.241006521062306E+02
0.247062167726489E+02
0.253333743042495E+02
0.186046916132220E+02
0.186322785628421E+02
0.187148068399780E+02
0.188516012605902E+02
0.190415610463258E+02
0.192831953273309E+02
0.195746686380356E+02
0.199138526863812E+02
0.202983800948121E+02
0.207256955061685E+02
0.211930994044883E+02
0.216977801949241E+02
0.222368305014467E+02
0.228072442822402E+02
0.234058922697933E+02
0.240294744844563E+02
0.246744502276300E+02
</DataArray>
</PointData>
</Piece>
</RectilinearGrid>
</VTKFile>
