<?xml version="1.0"?>
<VTKFile type="RectilinearGrid" version="0.1" byte_order="LittleEndian">
<RectilinearGrid WholeExtent="0   63    0   63    0    3">
<Piece Extent="15   31   47   63    0    3">
<Coordinates>
<DataArray Name="x" type="Float32" format="ascii">
0.150000000000000E+01
0.160000000000000E+01
0.170000000000000E+01
0.180000000000000E+01
0.190000000000000E+01
0.200000000000000E+01
0.210000000000000E+01
0.220000000000000E+01
0.230000000000000E+01
0.240000000000000E+01
0.250000000000000E+01
0.260000000000000E+01
0.270000000000000E+01
0.280000000000000E+01
0.290000000000000E+01
0.300000000000000E+01
0.310000000000000E+01
</DataArray>
<DataArray Name="y" type="Float32" format="ascii">
0.470000000000000E+01
0.480000000000000E+01
0.490000000000000E+01
0.500000000000000E+01
0.510000000000000E+01
0.520000000000000E+01
0.530000000000000E+01
0.540000000000000E+01
0.550000000000000E+01
0.560000000000000E+01
0.570000000000000E+01
0.580000000000000E+01
0.590000000000000E+01
0.600000000000000E+01
0.610000000000000E+01
0.620000000000000E+01
0.630000000000000E+01
</DataArray>
<DataArray Name="z" type="Float32" format="ascii">
0.000000000000000E+00
0.100000000000000E+00
0.200000000000000E+00
0.300000000000000E+00
</DataArray>
</Coordinates>
<PointData Scalars="c">
<DataArray type="Float32" Name="c" format="ascii">
0.253809199252033E+02
0.250872729251965E+02
0.247964308786228E+02
0.245112785271224E+02
0.242346315672621E+02
0.239692106214331E+02
0.237176167341735E+02
0.234823085511670E+02
0.232655813032742E+02
0.230695476858192E+02
0.228961206946998E+02
0.227469984562369E+02
0.226236510673410E+02
0.225273094466637E+02
0.224589561858574E+02
0.224193183826423E+02
0.224088624336864E+02
0.256879244033008E+02
0.253979974984758E+02
0.251108539075881E+02
0.248293412815370E+02
0.245562386041594E+02
0.242942305404794E+02
0.240458833093759E+02
0.238136222333135E+02
0.235997110826931E+02
0.234062333001448E+02
0.232350751614353E+02
0.230879109051208E+02
0.229661898429689E+02
0.228711254476025E+02
0.228036864027321E+02
0.227645895944677E+02
0.227542950191599E+02
0.259925981621692E+02
0.257063480230251E+02
0.254228597293018E+02
0.251449442765218E+02
0.248753443697170E+02
0.246167091443608E+02
0.243715704106156E+02
0.241423205689995E+02
0.239311923103069E+02
0.237402401802818E+02
0.235713240609035E+02
0.234260945957110E+02
0.233059805667137E+02
0.232121782152034E+02
0.231456424881401E+02
0.231070801854582E+02
0.230969449812274E+02
0.262919813444453E+02
0.260093295747102E+02
0.257294185612084E+02
0.254550234288978E+02
0.251888513836548E+02
0.249335167976789E+02
0.246915178170254E+02
0.244652146349453E+02
0.242568095392574E+02
0.240683288095594E+02
0.239016065114433E+02
0.237582702105686E+02
0.236397286097818E+02
0.235471610975726E+02
0.234815091859463E+02
0.234434698100028E+02
0.234334904597109E+02
0.265831479462711E+02
0.263039820378744E+02
0.260275363815624E+02
0.257565513563467E+02
0.254936997846716E+02
0.252415623706440E+02
0.250026046591428E+02
0.247791556552100E+02
0.245733882075045E+02
0.243873012270958E+02
0.242227037842426E+02
0.240812011015993E+02
0.239641824428415E+02
0.238728108811246E+02
0.238080149219989E+02
0.237704819501232E+02
0.237606534679193E+02
0.268632355880286E+02
0.265874101830755E+02
0.263142853120876E+02
0.260465680598633E+02
0.257868983045533E+02
0.255378244937700E+02
0.253017809402873E+02
0.250810667726468E+02
0.248778266402081E+02
0.246940332395989E+02
0.245314717008995E+02
0.243917258477970E+02
0.242761663267039E+02
0.241859405855601E+02
0.241219646736470E+02
0.240849168289549E+02
0.240752328190030E+02
0.271294752841840E+02
0.268568137251254E+02
0.265868339621405E+02
0.263222115491158E+02
0.260655551669900E+02
0.258193827196644E+02
0.255860989481980E+02
0.253679746947440E+02
0.251671279117630E+02
0.249855064793922E+02
0.248248728652383E+02
0.246867906368704E+02
0.245726128182362E+02
0.244834720672424E+02
0.244202726427289E+02
0.243836841247336E+02
0.243741368518459E+02
0.273792208439960E+02
0.271095169915326E+02
0.268424773628526E+02
0.265807480376018E+02
0.263269085364554E+02
0.260834482158074E+02
0.258527441794478E+02
0.256370408350893E+02
0.254384311875495E+02
0.252588399276691E+02
0.251000083474547E+02
0.249634810880314E+02
0.248505947081261E+02
0.247624680470870E+02
0.246999943477837E+02
0.246638351008340E+02
0.246544155719941E+02
0.276099775163769E+02
0.273429978133715E+02
0.270786661020339E+02
0.268196013171820E+02
0.265683561255808E+02
0.263273935956577E+02
0.260990653829464E+02
0.258855915558205E+02
0.256890421498961E+02
0.255113205067025E+02
0.253541484236376E+02
0.252190531184129E+02
0.251073559924962E+02
0.250201631645927E+02
0.249583577368660E+02
0.249225937530983E+02
0.249132918088327E+02
0.278194294812975E+02
0.275549152400554E+02
0.272930342604257E+02
0.270363809117232E+02
0.267874835599405E+02
0.265487814862388E+02
0.263226033199765E+02
0.261111471078535E+02
0.259164621044600E+02
0.257404323366881E+02
0.255847619658932E+02
0.254509624479618E+02
0.253403414729013E+02
0.252539936523167E+02
0.251927929151012E+02
0.251573865685112E+02
0.251481909830568E+02
0.280054657877652E+02
0.277431356774259E+02
0.274834257481291E+02
0.272289086081226E+02
0.269820910979997E+02
0.267453914294733E+02
0.265211178375889E+02
0.263114488653200E+02
0.261184153631027E+02
0.259438842529950E+02
0.257895440785828E+02
0.256568923381020E+02
0.255472245798347E+02
0.254616252257908E+02
0.254009600818993E+02
0.253658704900974E+02
0.253567690793236E+02
0.281662043452636E+02
0.279057570556865E+02
0.276479186473976E+02
0.273952429705895E+02
0.271502183118231E+02
0.269152447226160E+02
0.266926128604905E+02
0.264844844591579E+02
0.262928745080473E+02
0.261196351884783E+02
0.259664415852262E+02
0.258347791686369E+02
0.257259330241555E+02
0.256409787932548E+02
0.255807752821858E+02
0.255459586924061E+02
0.255369384284673E+02
0.283000135920041E+02
0.280411306503652E+02
0.277848471848391E+02
0.275337014611171E+02
0.272901663513841E+02
0.270566268205575E+02
0.268353589241509E+02
0.266285104325565E+02
0.264380831600094E+02
0.262659170435518E+02
0.261136759887823E+02
0.259828354756307E+02
0.258746718992020E+02
0.257902536080026E+02
0.257304335944766E+02
0.256958437904365E+02
0.256868909221611E+02
0.284055314894460E+02
0.281478802057463E+02
0.278928209824719E+02
0.276428798156131E+02
0.274005174419896E+02
0.271681069495768E+02
0.269479128987844E+02
0.267420720680022E+02
0.265525759001452E+02
0.263812546939631E+02
0.262297635553522E+02
0.260995701004056E+02
0.259919438838195E+02
0.259079475136480E+02
0.258484294061657E+02
0.258140181324238E+02
0.258051183104769E+02
0.284816815279700E+02
0.282249180457323E+02
0.279707412726950E+02
0.277216683608667E+02
0.274801513001316E+02
0.272485546180004E+02
0.270291345898205E+02
0.268240200716967E+02
0.266351950317502E+02
0.264644828223651E+02
0.263135322075452E+02
0.261838051360368E+02
0.260765662328054E+02
0.259928739689138E+02
0.259335734627155E+02
0.258992908632326E+02
0.258904292691260E+02
0.285276854726537E+02
0.282714579012202E+02
0.280178138064034E+02
0.277692650017461E+02
0.275282581973344E+02
0.272971527535202E+02
0.270781999448039E+02
0.268735238454826E+02
0.266851039120305E+02
0.265147593041834E+02
0.263641349581810E+02
0.262346894021690E+02
0.261276842857297E+02
0.260441755830177E+02
0.259850064219054E+02
0.259508014895767E+02
0.259419629676304E+02
0.285430726297790E+02
0.282870242347615E+02
0.280335582351787E+02
0.277851846597274E+02
0.275443484532770E+02
0.273134072486361E+02
0.270946106483776E+02
0.268900811281141E+02
0.267017966359667E+02
0.265315749299756E+02
0.263810596666807E+02
0.262517082306554E+02
0.261447812767582E+02
0.260613339443840E+02
0.260022086959530E+02
0.259680297299303E+02
0.259591989213214E+02
0.253809199252033E+02
0.250872729251965E+02
0.247964308786228E+02
0.245112785271224E+02
0.242346315672621E+02
0.239692106214331E+02
0.237176167341735E+02
0.234823085511670E+02
0.232655813032742E+02
0.230695476858192E+02
0.228961206946998E+02
0.227469984562369E+02
0.226236510673410E+02
0.225273094466637E+02
0.224589561858574E+02
0.224193183826423E+02
0.224088624336864E+02
0.256879244033008E+02
0.253979974984758E+02
0.251108539075881E+02
0.248293412815370E+02
0.245562386041594E+02
0.242942305404794E+02
0.240458833093759E+02
0.238136222333135E+02
0.235997110826931E+02
0.234062333001448E+02
0.232350751614353E+02
0.230879109051208E+02
0.229661898429689E+02
0.228711254476025E+02
0.228036864027321E+02
0.227645895944677E+02
0.227542950191599E+02
0.259925981621692E+02
0.257063480230251E+02
0.254228597293018E+02
0.251449442765218E+02
0.248753443697170E+02
0.246167091443608E+02
0.243715704106156E+02
0.241423205689995E+02
0.239311923103069E+02
0.237402401802818E+02
0.235713240609035E+02
0.234260945957110E+02
0.233059805667137E+02
0.232121782152034E+02
0.231456424881401E+02
0.231070801854582E+02
0.230969449812274E+02
0.262919813444453E+02
0.260093295747102E+02
0.257294185612084E+02
0.254550234288978E+02
0.251888513836548E+02
0.249335167976789E+02
0.246915178170254E+02
0.244652146349453E+02
0.242568095392574E+02
0.240683288095594E+02
0.239016065114433E+02
0.237582702105686E+02
0.236397286097818E+02
0.235471610975726E+02
0.234815091859463E+02
0.234434698100028E+02
0.234334904597109E+02
0.265831479462711E+02
0.263039820378744E+02
0.260275363815624E+02
0.257565513563467E+02
0.254936997846716E+02
0.252415623706440E+02
0.250026046591428E+02
0.247791556552100E+02
0.245733882075045E+02
0.243873012270958E+02
0.242227037842426E+02
0.240812011015993E+02
0.239641824428415E+02
0.238728108811246E+02
0.238080149219989E+02
0.237704819501232E+02
0.237606534679193E+02
0.268632355880286E+02
0.265874101830755E+02
0.263142853120876E+02
0.260465680598633E+02
0.257868983045533E+02
0.255378244937700E+02
0.253017809402873E+02
0.250810667726468E+02
0.248778266402081E+02
0.246940332395989E+02
0.245314717008995E+02
0.243917258477970E+02
0.242761663267039E+02
0.241859405855601E+02
0.241219646736470E+02
0.240849168289549E+02
0.240752328190030E+02
0.271294752841840E+02
0.268568137251254E+02
0.265868339621405E+02
0.263222115491158E+02
0.260655551669900E+02
0.258193827196644E+02
0.255860989481980E+02
0.253679746947440E+02
0.251671279117630E+02
0.249855064793922E+02
0.248248728652383E+02
0.246867906368704E+02
0.245726128182362E+02
0.244834720672424E+02
0.244202726427289E+02
0.243836841247336E+02
0.243741368518459E+02
0.273792208439960E+02
0.271095169915326E+02
0.268424773628526E+02
0.265807480376018E+02
0.263269085364554E+02
0.260834482158074E+02
0.258527441794478E+02
0.256370408350893E+02
0.254384311875495E+02
0.252588399276691E+02
0.251000083474547E+02
0.249634810880314E+02
0.248505947081261E+02
0.247624680470870E+02
0.246999943477837E+02
0.246638351008340E+02
0.246544155719941E+02
0.276099775163769E+02
0.273429978133715E+02
0.270786661020339E+02
0.268196013171820E+02
0.265683561255808E+02
0.263273935956577E+02
0.260990653829464E+02
0.258855915558205E+02
0.256890421498961E+02
0.255113205067025E+02
0.253541484236376E+02
0.252190531184129E+02
0.251073559924962E+02
0.250201631645927E+02
0.249583577368660E+02
0.249225937530983E+02
0.249132918088327E+02
0.278194294812975E+02
0.275549152400554E+02
0.272930342604257E+02
0.270363809117232E+02
0.267874835599405E+02
0.265487814862388E+02
0.263226033199765E+02
0.261111471078535E+02
0.259164621044600E+02
0.257404323366881E+02
0.255847619658932E+02
0.254509624479618E+02
0.253403414729013E+02
0.252539936523167E+02
0.251927929151012E+02
0.251573865685112E+02
0.251481909830568E+02
0.280054657877652E+02
0.277431356774259E+02
0.274834257481291E+02
0.272289086081226E+02
0.269820910979997E+02
0.267453914294733E+02
0.265211178375889E+02
0.263114488653200E+02
0.261184153631027E+02
0.259438842529950E+02
0.257895440785828E+02
0.256568923381020E+02
0.255472245798347E+02
0.254616252257908E+02
0.254009600818993E+02
0.253658704900974E+02
0.253567690793236E+02
0.281662043452636E+02
0.279057570556865E+02
0.276479186473976E+02
0.273952429705895E+02
0.271502183118231E+02
0.269152447226160E+02
0.266926128604905E+02
0.264844844591579E+02
0.262928745080473E+02
0.261196351884783E+02
0.259664415852262E+02
0.258347791686369E+02
0.257259330241555E+02
0.256409787932548E+02
0.255807752821858E+02
0.255459586924061E+02
0.255369384284673E+02
0.283000135920041E+02
0.280411306503652E+02
0.277848471848391E+02
0.275337014611171E+02
0.272901663513841E+02
0.270566268205575E+02
0.268353589241509E+02
0.266285104325565E+02
0.264380831600094E+02
0.262659170435518E+02
0.261136759887823E+02
0.259828354756307E+02
0.258746718992020E+02
0.257902536080026E+02
0.257304335944766E+02
0.256958437904365E+02
0.256868909221611E+02
0.284055314894460E+02
0.281478802057463E+02
0.278928209824719E+02
0.276428798156131E+02
0.274005174419896E+02
0.271681069495768E+02
0.269479128987844E+02
0.267420720680022E+02
0.265525759001452E+02
0.263812546939631E+02
0.262297635553522E+02
0.260995701004056E+02
0.259919438838195E+02
0.259079475136480E+02
0.258484294061657E+02
0.258140181324238E+02
0.258051183104769E+02
0.284816815279700E+02
0.282249180457323E+02
0.279707412726950E+02
0.277216683608667E+02
0.274801513001316E+02
0.272485546180004E+02
0.270291345898205E+02
0.268240200716967E+02
0.266351950317502E+02
0.264644828223651E+02
0.263135322075452E+02
0.261838051360368E+02
0.260765662328054E+02
0.259928739689138E+02
0.259335734627155E+02
0.258992908632326E+02
0.258904292691260E+02
0.285276854726537E+02
0.282714579012202E+02
0.280178138064034E+02
0.277692650017461E+02
0.275282581973344E+02
0.272971527535202E+02
0.270781999448039E+02
0.268735238454826E+02
0.266851039120305E+02
0.265147593041834E+02
0.263641349581810E+02
0.262346894021690E+02
0.261276842857297E+02
0.260441755830177E+02
0.259850064219054E+02
0.259508014895767E+02
0.259419629676304E+02
0.285430726297790E+02
0.282870242347615E+02
0.280335582351787E+02
0.277851846597274E+02
0.275443484532770E+02
0.273134072486361E+02
0.270946106483776E+02
0.268900811281141E+02
0.267017966359667E+02
0.265315749299756E+02
0.263810596666807E+02
0.262517082306554E+02
0.261447812767582E+02
0.260613339443840E+02
0.260022086959530E+02
0.259680297299303E+02
0.259591989213214E+02
0.253809199252033E+02
0.250872729251965E+02
0.247964308786228E+02
0.245112785271224E+02
0.242346315672621E+02
0.239692106214331E+02
0.237176167341735E+02
0.234823085511670E+02
0.232655813032742E+02
0.230695476858192E+02
0.228961206946998E+02
0.227469984562369E+02
0.226236510673410E+02
0.225273094466637E+02
0.224589561858574E+02
0.224193183826423E+02
0.224088624336864E+02
0.256879244033008E+02
0.253979974984758E+02
0.251108539075881E+02
0.248293412815370E+02
0.245562386041594E+02
0.242942305404794E+02
0.240458833093759E+02
0.238136222333135E+02
0.235997110826931E+02
0.234062333001448E+02
0.232350751614353E+02
0.230879109051208E+02
0.229661898429689E+02
0.228711254476025E+02
0.228036864027321E+02
0.227645895944677E+02
0.227542950191599E+02
0.259925981621692E+02
0.257063480230251E+02
0.254228597293018E+02
0.251449442765218E+02
0.248753443697170E+02
0.246167091443608E+02
0.243715704106156E+02
0.241423205689995E+02
0.239311923103069E+02
0.237402401802818E+02
0.235713240609035E+02
0.234260945957110E+02
0.233059805667137E+02
0.232121782152034E+02
0.231456424881401E+02
0.231070801854582E+02
0.230969449812274E+02
0.262919813444453E+02
0.260093295747102E+02
0.257294185612084E+02
0.254550234288978E+02
0.251888513836548E+02
0.249335167976789E+02
0.246915178170254E+02
0.244652146349453E+02
0.242568095392574E+02
0.240683288095594E+02
0.239016065114433E+02
0.237582702105686E+02
0.236397286097818E+02
0.235471610975726E+02
0.234815091859463E+02
0.234434698100028E+02
0.234334904597109E+02
0.265831479462711E+02
0.263039820378744E+02
0.260275363815624E+02
0.257565513563467E+02
0.254936997846716E+02
0.252415623706440E+02
0.250026046591428E+02
0.247791556552100E+02
0.245733882075045E+02
0.243873012270958E+02
0.242227037842426E+02
0.240812011015993E+02
0.239641824428415E+02
0.238728108811246E+02
0.238080149219989E+02
0.237704819501232E+02
0.237606534679193E+02
0.268632355880286E+02
0.265874101830755E+02
0.263142853120876E+02
0.260465680598633E+02
0.257868983045533E+02
0.255378244937700E+02
0.253017809402873E+02
0.250810667726468E+02
0.248778266402081E+02
0.246940332395989E+02
0.245314717008995E+02
0.243917258477970E+02
0.242761663267039E+02
0.241859405855601E+02
0.241219646736470E+02
0.240849168289549E+02
0.240752328190030E+02
0.271294752841840E+02
0.268568137251254E+02
0.265868339621405E+02
0.263222115491158E+02
0.260655551669900E+02
0.258193827196644E+02
0.255860989481980E+02
0.253679746947440E+02
0.251671279117630E+02
0.249855064793922E+02
0.248248728652383E+02
0.246867906368704E+02
0.245726128182362E+02
0.244834720672424E+02
0.244202726427289E+02
0.243836841247336E+02
0.243741368518459E+02
0.273792208439960E+02
0.271095169915326E+02
0.268424773628526E+02
0.265807480376018E+02
0.263269085364554E+02
0.260834482158074E+02
0.258527441794478E+02
0.256370408350893E+02
0.254384311875495E+02
0.252588399276691E+02
0.251000083474547E+02
0.249634810880314E+02
0.248505947081261E+02
0.247624680470870E+02
0.246999943477837E+02
0.246638351008340E+02
0.246544155719941E+02
0.276099775163769E+02
0.273429978133715E+02
0.270786661020339E+02
0.268196013171820E+02
0.265683561255808E+02
0.263273935956577E+02
0.260990653829464E+02
0.258855915558205E+02
0.256890421498961E+02
0.255113205067025E+02
0.253541484236376E+02
0.252190531184129E+02
0.251073559924962E+02
0.250201631645927E+02
0.249583577368660E+02
0.249225937530983E+02
0.249132918088327E+02
0.278194294812975E+02
0.275549152400554E+02
0.272930342604257E+02
0.270363809117232E+02
0.267874835599405E+02
0.265487814862388E+02
0.263226033199765E+02
0.261111471078535E+02
0.259164621044600E+02
0.257404323366881E+02
0.255847619658932E+02
0.254509624479618E+02
0.253403414729013E+02
0.252539936523167E+02
0.251927929151012E+02
0.251573865685112E+02
0.251481909830568E+02
0.280054657877652E+02
0.277431356774259E+02
0.274834257481291E+02
0.272289086081226E+02
0.269820910979997E+02
0.267453914294733E+02
0.265211178375889E+02
0.263114488653200E+02
0.261184153631027E+02
0.259438842529950E+02
0.257895440785828E+02
0.256568923381020E+02
0.255472245798347E+02
0.254616252257908E+02
0.254009600818993E+02
0.253658704900974E+02
0.253567690793236E+02
0.281662043452636E+02
0.279057570556865E+02
0.276479186473976E+02
0.273952429705895E+02
0.271502183118231E+02
0.269152447226160E+02
0.266926128604905E+02
0.264844844591579E+02
0.262928745080473E+02
0.261196351884783E+02
0.259664415852262E+02
0.258347791686369E+02
0.257259330241555E+02
0.256409787932548E+02
0.255807752821858E+02
0.255459586924061E+02
0.255369384284673E+02
0.283000135920041E+02
0.280411306503652E+02
0.277848471848391E+02
0.275337014611171E+02
0.272901663513841E+02
0.270566268205575E+02
0.268353589241509E+02
0.266285104325565E+02
0.264380831600094E+02
0.262659170435518E+02
0.261136759887823E+02
0.259828354756307E+02
0.258746718992020E+02
0.257902536080026E+02
0.257304335944766E+02
0.256958437904365E+02
0.256868909221611E+02
0.284055314894460E+02
0.281478802057463E+02
0.278928209824719E+02
0.276428798156131E+02
0.274005174419896E+02
0.271681069495768E+02
0.269479128987844E+02
0.267420720680022E+02
0.265525759001452E+02
0.263812546939631E+02
0.262297635553522E+02
0.260995701004056E+02
0.259919438838195E+02
0.259079475136480E+02
0.258484294061657E+02
0.258140181324238E+02
0.258051183104769E+02
0.284816815279700E+02
0.282249180457323E+02
0.279707412726950E+02
0.277216683608667E+02
0.274801513001316E+02
0.272485546180004E+02
0.270291345898205E+02
0.268240200716967E+02
0.266351950317502E+02
0.264644828223651E+02
0.263135322075452E+02
0.261838051360368E+02
0.260765662328054E+02
0.259928739689138E+02
0.259335734627155E+02
0.258992908632326E+02
0.258904292691260E+02
0.285276854726537E+02
0.282714579012202E+02
0.280178138064034E+02
0.277692650017461E+02
0.275282581973344E+02
0.272971527535202E+02
0.270781999448039E+02
0.268735238454826E+02
0.266851039120305E+02
0.265147593041834E+02
0.263641349581810E+02
0.262346894021690E+02
0.261276842857297E+02
0.260441755830177E+02
0.259850064219054E+02
0.259508014895767E+02
0.259419629676304E+02
0.285430726297790E+02
0.282870242347615E+02
0.280335582351787E+02
0.277851846597274E+02
0.275443484532770E+02
0.273134072486361E+02
0.270946106483776E+02
0.268900811281141E+02
0.267017966359667E+02
0.265315749299756E+02
0.263810596666807E+02
0.262517082306554E+02
0.261447812767582E+02
0.260613339443840E+02
0.260022086959530E+02
0.259680297299303E+02
0.259591989213214E+02
0.253809199252033E+02
0.250872729251965E+02
0.247964308786228E+02
0.245112785271224E+02
0.242346315672621E+02
0.239692106214331E+02
0.237176167341735E+02
0.234823085511670E+02
0.232655813032742E+02
0.230695476858192E+02
0.228961206946998E+02
0.227469984562369E+02
0.226236510673410E+02
0.225273094466637E+02
0.224589561858574E+02
0.224193183826423E+02
0.224088624336864E+02
0.256879244033008E+02
0.253979974984758E+02
0.251108539075881E+02
0.248293412815370E+02
0.245562386041594E+02
0.242942305404794E+02
0.240458833093759E+02
0.238136222333135E+02
0.235997110826931E+02
0.234062333001448E+02
0.232350751614353E+02
0.230879109051208E+02
0.229661898429689E+02
0.228711254476025E+02
0.228036864027321E+02
0.227645895944677E+02
0.227542950191599E+02
0.259925981621692E+02
0.257063480230251E+02
0.254228597293018E+02
0.251449442765218E+02
0.248753443697170E+02
0.246167091443608E+02
0.243715704106156E+02
0.241423205689995E+02
0.239311923103069E+02
0.237402401802818E+02
0.235713240609035E+02
0.234260945957110E+02
0.233059805667137E+02
0.232121782152034E+02
0.231456424881401E+02
0.231070801854582E+02
0.230969449812274E+02
0.262919813444453E+02
0.260093295747102E+02
0.257294185612084E+02
0.254550234288978E+02
0.251888513836548E+02
0.249335167976789E+02
0.246915178170254E+02
0.244652146349453E+02
0.242568095392574E+02
0.240683288095594E+02
0.239016065114433E+02
0.237582702105686E+02
0.236397286097818E+02
0.235471610975726E+02
0.234815091859463E+02
0.234434698100028E+02
0.234334904597109E+02
0.265831479462711E+02
0.263039820378744E+02
0.260275363815624E+02
0.257565513563467E+02
0.254936997846716E+02
0.252415623706440E+02
0.250026046591428E+02
0.247791556552100E+02
0.245733882075045E+02
0.243873012270958E+02
0.242227037842426E+02
0.240812011015993E+02
0.239641824428415E+02
0.238728108811246E+02
0.238080149219989E+02
0.237704819501232E+02
0.237606534679193E+02
0.268632355880286E+02
0.265874101830755E+02
0.263142853120876E+02
0.260465680598633E+02
0.257868983045533E+02
0.255378244937700E+02
0.253017809402873E+02
0.250810667726468E+02
0.248778266402081E+02
0.246940332395989E+02
0.245314717008995E+02
0.243917258477970E+02
0.242761663267039E+02
0.241859405855601E+02
0.241219646736470E+02
0.240849168289549E+02
0.240752328190030E+02
0.271294752841840E+02
0.268568137251254E+02
0.265868339621405E+02
0.263222115491158E+02
0.260655551669900E+02
0.258193827196644E+02
0.255860989481980E+02
0.253679746947440E+02
0.251671279117630E+02
0.249855064793922E+02
0.248248728652383E+02
0.246867906368704E+02
0.245726128182362E+02
0.244834720672424E+02
0.244202726427289E+02
0.243836841247336E+02
0.243741368518459E+02
0.273792208439960E+02
0.271095169915326E+02
0.268424773628526E+02
0.265807480376018E+02
0.263269085364554E+02
0.260834482158074E+02
0.258527441794478E+02
0.256370408350893E+02
0.254384311875495E+02
0.252588399276691E+02
0.251000083474547E+02
0.249634810880314E+02
0.248505947081261E+02
0.247624680470870E+02
0.246999943477837E+02
0.246638351008340E+02
0.246544155719941E+02
0.276099775163769E+02
0.273429978133715E+02
0.270786661020339E+02
0.268196013171820E+02
0.265683561255808E+02
0.263273935956577E+02
0.260990653829464E+02
0.258855915558205E+02
0.256890421498961E+02
0.255113205067025E+02
0.253541484236376E+02
0.252190531184129E+02
0.251073559924962E+02
0.250201631645927E+02
0.249583577368660E+02
0.249225937530983E+02
0.249132918088327E+02
0.278194294812975E+02
0.275549152400554E+02
0.272930342604257E+02
0.270363809117232E+02
0.267874835599405E+02
0.265487814862388E+02
0.263226033199765E+02
0.261111471078535E+02
0.259164621044600E+02
0.257404323366881E+02
0.255847619658932E+02
0.254509624479618E+02
0.253403414729013E+02
0.252539936523167E+02
0.251927929151012E+02
0.251573865685112E+02
0.251481909830568E+02
0.280054657877652E+02
0.277431356774259E+02
0.274834257481291E+02
0.272289086081226E+02
0.269820910979997E+02
0.267453914294733E+02
0.265211178375889E+02
0.263114488653200E+02
0.261184153631027E+02
0.259438842529950E+02
0.257895440785828E+02
0.256568923381020E+02
0.255472245798347E+02
0.254616252257908E+02
0.254009600818993E+02
0.253658704900974E+02
0.253567690793236E+02
0.281662043452636E+02
0.279057570556865E+02
0.276479186473976E+02
0.273952429705895E+02
0.271502183118231E+02
0.269152447226160E+02
0.266926128604905E+02
0.264844844591579E+02
0.262928745080473E+02
0.261196351884783E+02
0.259664415852262E+02
0.258347791686369E+02
0.257259330241555E+02
0.256409787932548E+02
0.255807752821858E+02
0.255459586924061E+02
0.255369384284673E+02
0.283000135920041E+02
0.280411306503652E+02
0.277848471848391E+02
0.275337014611171E+02
0.272901663513841E+02
0.270566268205575E+02
0.268353589241509E+02
0.266285104325565E+02
0.264380831600094E+02
0.262659170435518E+02
0.261136759887823E+02
0.259828354756307E+02
0.258746718992020E+02
0.257902536080026E+02
0.257304335944766E+02
0.256958437904365E+02
0.256868909221611E+02
0.284055314894460E+02
0.281478802057463E+02
0.278928209824719E+02
0.276428798156131E+02
0.274005174419896E+02
0.271681069495768E+02
0.269479128987844E+02
0.267420720680022E+02
0.265525759001452E+02
0.263812546939631E+02
0.262297635553522E+02
0.260995701004056E+02
0.259919438838195E+02
0.259079475136480E+02
0.258484294061657E+02
0.258140181324238E+02
0.258051183104769E+02
0.284816815279700E+02
0.282249180457323E+02
0.279707412726950E+02
0.277216683608667E+02
0.274801513001316E+02
0.272485546180004E+02
0.270291345898205E+02
0.268240200716967E+02
0.266351950317502E+02
0.264644828223651E+02
0.263135322075452E+02
0.261838051360368E+02
0.260765662328054E+02
0.259928739689138E+02
0.259335734627155E+02
0.258992908632326E+02
0.258904292691260E+02
0.285276854726537E+02
0.282714579012202E+02
0.280178138064034E+02
0.277692650017461E+02
0.275282581973344E+02
0.272971527535202E+02
0.270781999448039E+02
0.268735238454826E+02
0.266851039120305E+02
0.265147593041834E+02
0.263641349581810E+02
0.262346894021690E+02
0.261276842857297E+02
0.260441755830177E+02
0.259850064219054E+02
0.259508014895767E+02
0.259419629676304E+02
0.285430726297790E+02
0.282870242347615E+02
0.280335582351787E+02
0.277851846597274E+02
0.275443484532770E+02
0.273134072486361E+02
0.270946106483776E+02
0.268900811281141E+02
0.267017966359667E+02
0.265315749299756E+02
0.263810596666807E+02
0.262517082306554E+02
0.261447812767582E+02
0.260613339443840E+02
0.260022086959530E+02
0.259680297299303E+02
0.259591989213214E+02
</DataArray>
</PointData>
</Piece>
</RectilinearGrid>
</VTKFile>
