<?xml version="1.0"?>
<VTKFile type="RectilinearGrid" version="0.1" byte_order="LittleEndian">
<RectilinearGrid WholeExtent="0   63    0   63    0    3">
<Piece Extent="15   31   47   63    0    3">
<Coordinates>
<DataArray Name="x" type="Float32" format="ascii">
0.150000000000000E+01
0.160000000000000E+01
0.170000000000000E+01
0.180000000000000E+01
0.190000000000000E+01
0.200000000000000E+01
0.210000000000000E+01
0.220000000000000E+01
0.230000000000000E+01
0.240000000000000E+01
0.250000000000000E+01
0.260000000000000E+01
0.270000000000000E+01
0.280000000000000E+01
0.290000000000000E+01
0.300000000000000E+01
0.310000000000000E+01
</DataArray>
<DataArray Name="y" type="Float32" format="ascii">
0.470000000000000E+01
0.480000000000000E+01
0.490000000000000E+01
0.500000000000000E+01
0.510000000000000E+01
0.520000000000000E+01
0.530000000000000E+01
0.540000000000000E+01
0.550000000000000E+01
0.560000000000000E+01
0.570000000000000E+01
0.580000000000000E+01
0.590000000000000E+01
0.600000000000000E+01
0.610000000000000E+01
0.620000000000000E+01
0.630000000000000E+01
</DataArray>
<DataArray Name="z" type="Float32" format="ascii">
0.000000000000000E+00
0.100000000000000E+00
0.200000000000000E+00
0.300000000000000E+00
</DataArray>
</Coordinates>
<PointData Scalars="c">
<DataArray type="Float32" Name="c" format="ascii">
0.252534526894319E+02
0.247832039058365E+02
0.243202294278842E+02
0.238689155930461E+02
0.234334376820528E+02
0.230177339089201E+02
0.226254841186075E+02
0.222600925449637E+02
0.219246739807361E+02
0.216220427552512E+02
0.213547039916387E+02
0.211248467109802E+02
0.209343384526585E+02
0.207847211770696E+02
0.206772082997131E+02
0.206126827684617E+02
0.205916961357846E+02
0.257389791780919E+02
0.252782003489333E+02
0.248246937930873E+02
0.243827507818486E+02
0.239564503471059E+02
0.235496342849786E+02
0.231658869685608E+02
0.228085193091028E+02
0.224805561973536E+02
0.221847267941988E+02
0.219234571103560E+02
0.216988644060166E+02
0.215127530404739E+02
0.213666114978611E+02
0.212616103992925E+02
0.211986013779394E+02
0.211781167390239E+02
0.262239781867549E+02
0.257725027054501E+02
0.253282940603659E+02
0.248955502596562E+02
0.244782560439015E+02
0.240801588763847E+02
0.237047498368492E+02
0.233552487454436E+02
0.230345928295746E+02
0.227454282777014E+02
0.224901040893818E+02
0.222706677178337E+02
0.220888620978075E+02
0.219461237468840E+02
0.218435817137148E+02
0.217820572162405E+02
0.217620638635786E+02
0.267036881456305E+02
0.262612649087365E+02
0.258260999019225E+02
0.254023005135667E+02
0.249937599928548E+02
0.246041343912266E+02
0.242368244940199E+02
0.238949620571781E+02
0.235813996439258E+02
0.232987033819019E+02
0.230491480214788E+02
0.228347137590187E+02
0.226570843828809E+02
0.225176463945784E+02
0.224174888440377E+02
0.223574036905141E+02
0.223378865562555E+02
0.271732741445496E+02
0.267395717383568E+02
0.263131161403012E+02
0.258979275561036E+02
0.254978113341545E+02
0.251163358149349E+02
0.247568152493542E+02
0.244222970898900E+02
0.241155529329070E+02
0.238390724107897E+02
0.235950593880751E+02
0.233854298951230E+02
0.232118113246229E+02
0.230755425101175E+02
0.229776743933558E+02
0.229189710627314E+02
0.228999110051593E+02
0.276278793098149E+02
0.272024906387237E+02
0.267843349938034E+02
0.263773495785174E+02
0.259852561666856E+02
0.256115398097326E+02
0.252594326834479E+02
0.249319023680708E+02
0.246316438249075E+02
0.243610743480481E+02
0.241223308209797E+02
0.239172686838588E+02
0.237474621068318E+02
0.236142049580236E+02
0.235185122434182E+02
0.234611217739272E+02
0.234424958792167E+02
0.280626819565778E+02
0.276451292346710E+02
0.272347939368011E+02
0.268355351344175E+02
0.264509960312617E+02
0.260845834721154E+02
0.257394526535854E+02
0.254184963216032E+02
0.251243377050822E+02
0.248593264460764E+02
0.246255368340763E+02
0.244247677249499E+02
0.242585436127103E+02
0.241281164149182E+02
0.240344676220117E+02
0.239783105413086E+02
0.239600924345113E+02
0.284729577940260E+02
0.280626978357356E+02
0.276596384819787E+02
0.272675661766256E+02
0.268900511773139E+02
0.265304278039308E+02
0.261917799437989E+02
0.258769310900540E+02
0.255884381503180E+02
0.253285882696596E+02
0.250993979555793E+02
0.249026138628353E+02
0.247397146818339E+02
0.246119136663827E+02
0.245201614268686E+02
0.244651486975190E+02
0.244473088579122E+02
0.288541461017079E+02
0.284505758610298E+02
0.280541888307712E+02
0.276687049085750E+02
0.272976275898786E+02
0.269442248896429E+02
0.266115155679184E+02
0.263022599284977E+02
0.260189544168390E+02
0.257638292467761E+02
0.255388483261153E+02
0.253457108188191E+02
0.251858537657991E+02
0.250604552779184E+02
0.249704379057559E+02
0.249164718751743E+02
0.248989779522855E+02
0.292019184526247E+02
0.288043807720649E+02
0.284140089919437E+02
0.280344630634810E+02
0.276691864039121E+02
0.273213874209188E+02
0.269940263809167E+02
0.266898068841416E+02
0.264111711632084E+02
0.261602984220315E+02
0.259391054698183E+02
0.257492489702663E+02
0.255921287090249E+02
0.254688913736217E+02
0.253804344315946E+02
0.253274097787185E+02
0.253102269064246E+02
0.295122482575417E+02
0.291200377972681E+02
0.287349766621946E+02
0.283606719160365E+02
0.280005140221159E+02
0.276576588965202E+02
0.273350153384845E+02
0.270352370955536E+02
0.267607187720592E+02
0.265135947869947E+02
0.262957406228157E+02
0.261087756702348E+02
0.259540670558125E+02
0.258327339298939E+02
0.257456517844916E+02
0.256934564582775E+02
0.256765475653342E+02
0.297814791695573E+02
0.293938484938164E+02
0.290133519218095E+02
0.286435510877757E+02
0.282877910061231E+02
0.279491825764847E+02
0.276305904931979E+02
0.273346258122693E+02
0.270636423775641E+02
0.268197363032695E+02
0.266047477431307E+02
0.264202642389254E+02
0.262676250213600E+02
0.261479257269920E+02
0.260620230872521E+02
0.260105392343867E+02
0.259938653505415E+02
0.300063902395757E+02
0.296225560413283E+02
0.292458426445703E+02
0.288797740506727E+02
0.285276576515680E+02
0.281925671075430E+02
0.278773306509618E+02
0.275845240653455E+02
0.273164675360577E+02
0.270752255623363E+02
0.268626091522450E+02
0.266801795828014E+02
0.265292530874330E+02
0.264109059230618E+02
0.263259793619242E+02
0.262750842429420E+02
0.262586048004029E+02
0.301842556681973E+02
0.298034051144484E+02
0.294296644711642E+02
0.290665281810827E+02
0.287172741025884E+02
0.283849466792462E+02
0.280723455514971E+02
0.277820188571542E+02
0.275162604127161E+02
0.272771099596160E+02
0.270663556900986E+02
0.268855383271153E+02
0.267359561118792E+02
0.266186701426633E+02
0.265345096014870E+02
0.264840764957833E+02
0.264677496262799E+02
0.303128970673859E+02
0.299341942473227E+02
0.295625932593470E+02
0.292015672781160E+02
0.288543729212330E+02
0.285240336281315E+02
0.282133284924453E+02
0.279247857925227E+02
0.276606804091106E+02
0.274230343103367E+02
0.272136193138098E+02
0.270339613946455E+02
0.268853458870250E+02
0.267688230166826E+02
0.266852132949634E+02
0.266351123960621E+02
0.266188952240439E+02
0.303907263280800E+02
0.300133187845393E+02
0.296430081043478E+02
0.292832546393623E+02
0.289373022045952E+02
0.286081615830926E+02
0.282985994909769E+02
0.280111322461371E+02
0.277480233278045E+02
0.275112840047646E+02
0.273026762391144E+02
0.271237171310410E+02
0.269756842486255E+02
0.268596212763729E+02
0.267763435095230E+02
0.267264428124800E+02
0.267102917451916E+02
0.304167774815002E+02
0.300398028041367E+02
0.296699233133809E+02
0.293105950764931E+02
0.289650576312720E+02
0.286363175329939E+02
0.283271373637238E+02
0.280400294470908E+02
0.277772534551714E+02
0.275408170844411E+02
0.273324790067368E+02
0.271537533595967E+02
0.270059151187851E+02
0.268900057854733E+02
0.268068389139382E+02
0.267570050970287E+02
0.267408761123107E+02
0.252534526894319E+02
0.247832039058365E+02
0.243202294278842E+02
0.238689155930461E+02
0.234334376820528E+02
0.230177339089201E+02
0.226254841186075E+02
0.222600925449637E+02
0.219246739807361E+02
0.216220427552512E+02
0.213547039916387E+02
0.211248467109802E+02
0.209343384526585E+02
0.207847211770696E+02
0.206772082997131E+02
0.206126827684617E+02
0.205916961357846E+02
0.257389791780919E+02
0.252782003489333E+02
0.248246937930873E+02
0.243827507818486E+02
0.239564503471059E+02
0.235496342849786E+02
0.231658869685608E+02
0.228085193091028E+02
0.224805561973536E+02
0.221847267941988E+02
0.219234571103560E+02
0.216988644060166E+02
0.215127530404739E+02
0.213666114978611E+02
0.212616103992925E+02
0.211986013779394E+02
0.211781167390239E+02
0.262239781867549E+02
0.257725027054501E+02
0.253282940603659E+02
0.248955502596562E+02
0.244782560439015E+02
0.240801588763847E+02
0.237047498368492E+02
0.233552487454436E+02
0.230345928295746E+02
0.227454282777014E+02
0.224901040893818E+02
0.222706677178337E+02
0.220888620978075E+02
0.219461237468840E+02
0.218435817137148E+02
0.217820572162405E+02
0.217620638635786E+02
0.267036881456305E+02
0.262612649087365E+02
0.258260999019225E+02
0.254023005135667E+02
0.249937599928548E+02
0.246041343912266E+02
0.242368244940199E+02
0.238949620571781E+02
0.235813996439258E+02
0.232987033819019E+02
0.230491480214788E+02
0.228347137590187E+02
0.226570843828809E+02
0.225176463945784E+02
0.224174888440377E+02
0.223574036905141E+02
0.223378865562555E+02
0.271732741445496E+02
0.267395717383568E+02
0.263131161403012E+02
0.258979275561036E+02
0.254978113341545E+02
0.251163358149349E+02
0.247568152493542E+02
0.244222970898900E+02
0.241155529329070E+02
0.238390724107897E+02
0.235950593880751E+02
0.233854298951230E+02
0.232118113246229E+02
0.230755425101175E+02
0.229776743933558E+02
0.229189710627314E+02
0.228999110051593E+02
0.276278793098149E+02
0.272024906387237E+02
0.267843349938034E+02
0.263773495785174E+02
0.259852561666856E+02
0.256115398097326E+02
0.252594326834479E+02
0.249319023680708E+02
0.246316438249075E+02
0.243610743480481E+02
0.241223308209797E+02
0.239172686838588E+02
0.237474621068318E+02
0.236142049580236E+02
0.235185122434182E+02
0.234611217739272E+02
0.234424958792167E+02
0.280626819565778E+02
0.276451292346710E+02
0.272347939368011E+02
0.268355351344175E+02
0.264509960312617E+02
0.260845834721154E+02
0.257394526535854E+02
0.254184963216032E+02
0.251243377050822E+02
0.248593264460764E+02
0.246255368340763E+02
0.244247677249499E+02
0.242585436127103E+02
0.241281164149182E+02
0.240344676220117E+02
0.239783105413086E+02
0.239600924345113E+02
0.284729577940260E+02
0.280626978357356E+02
0.276596384819787E+02
0.272675661766256E+02
0.268900511773139E+02
0.265304278039308E+02
0.261917799437989E+02
0.258769310900540E+02
0.255884381503180E+02
0.253285882696596E+02
0.250993979555793E+02
0.249026138628353E+02
0.247397146818339E+02
0.246119136663827E+02
0.245201614268686E+02
0.244651486975190E+02
0.244473088579122E+02
0.288541461017079E+02
0.284505758610298E+02
0.280541888307712E+02
0.276687049085750E+02
0.272976275898786E+02
0.269442248896429E+02
0.266115155679184E+02
0.263022599284977E+02
0.260189544168390E+02
0.257638292467761E+02
0.255388483261153E+02
0.253457108188191E+02
0.251858537657991E+02
0.250604552779184E+02
0.249704379057559E+02
0.249164718751743E+02
0.248989779522855E+02
0.292019184526247E+02
0.288043807720649E+02
0.284140089919437E+02
0.280344630634810E+02
0.276691864039121E+02
0.273213874209188E+02
0.269940263809167E+02
0.266898068841416E+02
0.264111711632084E+02
0.261602984220315E+02
0.259391054698183E+02
0.257492489702663E+02
0.255921287090249E+02
0.254688913736217E+02
0.253804344315946E+02
0.253274097787185E+02
0.253102269064246E+02
0.295122482575417E+02
0.291200377972681E+02
0.287349766621946E+02
0.283606719160365E+02
0.280005140221159E+02
0.276576588965202E+02
0.273350153384845E+02
0.270352370955536E+02
0.267607187720592E+02
0.265135947869947E+02
0.262957406228157E+02
0.261087756702348E+02
0.259540670558125E+02
0.258327339298939E+02
0.257456517844916E+02
0.256934564582775E+02
0.256765475653342E+02
0.297814791695573E+02
0.293938484938164E+02
0.290133519218095E+02
0.286435510877757E+02
0.282877910061231E+02
0.279491825764847E+02
0.276305904931979E+02
0.273346258122693E+02
0.270636423775641E+02
0.268197363032695E+02
0.266047477431307E+02
0.264202642389254E+02
0.262676250213600E+02
0.261479257269920E+02
0.260620230872521E+02
0.260105392343867E+02
0.259938653505415E+02
0.300063902395757E+02
0.296225560413283E+02
0.292458426445703E+02
0.288797740506727E+02
0.285276576515680E+02
0.281925671075430E+02
0.278773306509618E+02
0.275845240653455E+02
0.273164675360577E+02
0.270752255623363E+02
0.268626091522450E+02
0.266801795828014E+02
0.265292530874330E+02
0.264109059230618E+02
0.263259793619242E+02
0.262750842429420E+02
0.262586048004029E+02
0.301842556681973E+02
0.298034051144484E+02
0.294296644711642E+02
0.290665281810827E+02
0.287172741025884E+02
0.283849466792462E+02
0.280723455514971E+02
0.277820188571542E+02
0.275162604127161E+02
0.272771099596160E+02
0.270663556900986E+02
0.268855383271153E+02
0.267359561118792E+02
0.266186701426633E+02
0.265345096014870E+02
0.264840764957833E+02
0.264677496262799E+02
0.303128970673859E+02
0.299341942473227E+02
0.295625932593470E+02
0.292015672781160E+02
0.288543729212330E+02
0.285240336281315E+02
0.282133284924453E+02
0.279247857925227E+02
0.276606804091106E+02
0.274230343103367E+02
0.272136193138098E+02
0.270339613946455E+02
0.268853458870250E+02
0.267688230166826E+02
0.266852132949634E+02
0.266351123960621E+02
0.266188952240439E+02
0.303907263280800E+02
0.300133187845393E+02
0.296430081043478E+02
0.292832546393623E+02
0.289373022045952E+02
0.286081615830926E+02
0.282985994909769E+02
0.280111322461371E+02
0.277480233278045E+02
0.275112840047646E+02
0.273026762391144E+02
0.271237171310410E+02
0.269756842486255E+02
0.268596212763729E+02
0.267763435095230E+02
0.267264428124800E+02
0.267102917451916E+02
0.304167774815002E+02
0.300398028041367E+02
0.296699233133809E+02
0.293105950764931E+02
0.289650576312720E+02
0.286363175329939E+02
0.283271373637238E+02
0.280400294470908E+02
0.277772534551714E+02
0.275408170844411E+02
0.273324790067368E+02
0.271537533595967E+02
0.270059151187851E+02
0.268900057854733E+02
0.268068389139382E+02
0.267570050970287E+02
0.267408761123107E+02
0.252534526894319E+02
0.247832039058365E+02
0.243202294278842E+02
0.238689155930461E+02
0.234334376820528E+02
0.230177339089201E+02
0.226254841186075E+02
0.222600925449637E+02
0.219246739807361E+02
0.216220427552512E+02
0.213547039916387E+02
0.211248467109802E+02
0.209343384526585E+02
0.207847211770696E+02
0.206772082997131E+02
0.206126827684617E+02
0.205916961357846E+02
0.257389791780919E+02
0.252782003489333E+02
0.248246937930873E+02
0.243827507818486E+02
0.239564503471059E+02
0.235496342849786E+02
0.231658869685608E+02
0.228085193091028E+02
0.224805561973536E+02
0.221847267941988E+02
0.219234571103560E+02
0.216988644060166E+02
0.215127530404739E+02
0.213666114978611E+02
0.212616103992925E+02
0.211986013779394E+02
0.211781167390239E+02
0.262239781867549E+02
0.257725027054501E+02
0.253282940603659E+02
0.248955502596562E+02
0.244782560439015E+02
0.240801588763847E+02
0.237047498368492E+02
0.233552487454436E+02
0.230345928295746E+02
0.227454282777014E+02
0.224901040893818E+02
0.222706677178337E+02
0.220888620978075E+02
0.219461237468840E+02
0.218435817137148E+02
0.217820572162405E+02
0.217620638635786E+02
0.267036881456305E+02
0.262612649087365E+02
0.258260999019225E+02
0.254023005135667E+02
0.249937599928548E+02
0.246041343912266E+02
0.242368244940199E+02
0.238949620571781E+02
0.235813996439258E+02
0.232987033819019E+02
0.230491480214788E+02
0.228347137590187E+02
0.226570843828809E+02
0.225176463945784E+02
0.224174888440377E+02
0.223574036905141E+02
0.223378865562555E+02
0.271732741445496E+02
0.267395717383568E+02
0.263131161403012E+02
0.258979275561036E+02
0.254978113341545E+02
0.251163358149349E+02
0.247568152493542E+02
0.244222970898900E+02
0.241155529329070E+02
0.238390724107897E+02
0.235950593880751E+02
0.233854298951230E+02
0.232118113246229E+02
0.230755425101175E+02
0.229776743933558E+02
0.229189710627314E+02
0.228999110051593E+02
0.276278793098149E+02
0.272024906387237E+02
0.267843349938034E+02
0.263773495785174E+02
0.259852561666856E+02
0.256115398097326E+02
0.252594326834479E+02
0.249319023680708E+02
0.246316438249075E+02
0.243610743480481E+02
0.241223308209797E+02
0.239172686838588E+02
0.237474621068318E+02
0.236142049580236E+02
0.235185122434182E+02
0.234611217739272E+02
0.234424958792167E+02
0.280626819565778E+02
0.276451292346710E+02
0.272347939368011E+02
0.268355351344175E+02
0.264509960312617E+02
0.260845834721154E+02
0.257394526535854E+02
0.254184963216032E+02
0.251243377050822E+02
0.248593264460764E+02
0.246255368340763E+02
0.244247677249499E+02
0.242585436127103E+02
0.241281164149182E+02
0.240344676220117E+02
0.239783105413086E+02
0.239600924345113E+02
0.284729577940260E+02
0.280626978357356E+02
0.276596384819787E+02
0.272675661766256E+02
0.268900511773139E+02
0.265304278039308E+02
0.261917799437989E+02
0.258769310900540E+02
0.255884381503180E+02
0.253285882696596E+02
0.250993979555793E+02
0.249026138628353E+02
0.247397146818339E+02
0.246119136663827E+02
0.245201614268686E+02
0.244651486975190E+02
0.244473088579122E+02
0.288541461017079E+02
0.284505758610298E+02
0.280541888307712E+02
0.276687049085750E+02
0.272976275898786E+02
0.269442248896429E+02
0.266115155679184E+02
0.263022599284977E+02
0.260189544168390E+02
0.257638292467761E+02
0.255388483261153E+02
0.253457108188191E+02
0.251858537657991E+02
0.250604552779184E+02
0.249704379057559E+02
0.249164718751743E+02
0.248989779522855E+02
0.292019184526247E+02
0.288043807720649E+02
0.284140089919437E+02
0.280344630634810E+02
0.276691864039121E+02
0.273213874209188E+02
0.269940263809167E+02
0.266898068841416E+02
0.264111711632084E+02
0.261602984220315E+02
0.259391054698183E+02
0.257492489702663E+02
0.255921287090249E+02
0.254688913736217E+02
0.253804344315946E+02
0.253274097787185E+02
0.253102269064246E+02
0.295122482575417E+02
0.291200377972681E+02
0.287349766621946E+02
0.283606719160365E+02
0.280005140221159E+02
0.276576588965202E+02
0.273350153384845E+02
0.270352370955536E+02
0.267607187720592E+02
0.265135947869947E+02
0.262957406228157E+02
0.261087756702348E+02
0.259540670558125E+02
0.258327339298939E+02
0.257456517844916E+02
0.256934564582775E+02
0.256765475653342E+02
0.297814791695573E+02
0.293938484938164E+02
0.290133519218095E+02
0.286435510877757E+02
0.282877910061231E+02
0.279491825764847E+02
0.276305904931979E+02
0.273346258122693E+02
0.270636423775641E+02
0.268197363032695E+02
0.266047477431307E+02
0.264202642389254E+02
0.262676250213600E+02
0.261479257269920E+02
0.260620230872521E+02
0.260105392343867E+02
0.259938653505415E+02
0.300063902395757E+02
0.296225560413283E+02
0.292458426445703E+02
0.288797740506727E+02
0.285276576515680E+02
0.281925671075430E+02
0.278773306509618E+02
0.275845240653455E+02
0.273164675360577E+02
0.270752255623363E+02
0.268626091522450E+02
0.266801795828014E+02
0.265292530874330E+02
0.264109059230618E+02
0.263259793619242E+02
0.262750842429420E+02
0.262586048004029E+02
0.301842556681973E+02
0.298034051144484E+02
0.294296644711642E+02
0.290665281810827E+02
0.287172741025884E+02
0.283849466792462E+02
0.280723455514971E+02
0.277820188571542E+02
0.275162604127161E+02
0.272771099596160E+02
0.270663556900986E+02
0.268855383271153E+02
0.267359561118792E+02
0.266186701426633E+02
0.265345096014870E+02
0.264840764957833E+02
0.264677496262799E+02
0.303128970673859E+02
0.299341942473227E+02
0.295625932593470E+02
0.292015672781160E+02
0.288543729212330E+02
0.285240336281315E+02
0.282133284924453E+02
0.279247857925227E+02
0.276606804091106E+02
0.274230343103367E+02
0.272136193138098E+02
0.270339613946455E+02
0.268853458870250E+02
0.267688230166826E+02
0.266852132949634E+02
0.266351123960621E+02
0.266188952240439E+02
0.303907263280800E+02
0.300133187845393E+02
0.296430081043478E+02
0.292832546393623E+02
0.289373022045952E+02
0.286081615830926E+02
0.282985994909769E+02
0.280111322461371E+02
0.277480233278045E+02
0.275112840047646E+02
0.273026762391144E+02
0.271237171310410E+02
0.269756842486255E+02
0.268596212763729E+02
0.267763435095230E+02
0.267264428124800E+02
0.267102917451916E+02
0.304167774815002E+02
0.300398028041367E+02
0.296699233133809E+02
0.293105950764931E+02
0.289650576312720E+02
0.286363175329939E+02
0.283271373637238E+02
0.280400294470908E+02
0.277772534551714E+02
0.275408170844411E+02
0.273324790067368E+02
0.271537533595967E+02
0.270059151187851E+02
0.268900057854733E+02
0.268068389139382E+02
0.267570050970287E+02
0.267408761123107E+02
0.252534526894319E+02
0.247832039058365E+02
0.243202294278842E+02
0.238689155930461E+02
0.234334376820528E+02
0.230177339089201E+02
0.226254841186075E+02
0.222600925449637E+02
0.219246739807361E+02
0.216220427552512E+02
0.213547039916387E+02
0.211248467109802E+02
0.209343384526585E+02
0.207847211770696E+02
0.206772082997131E+02
0.206126827684617E+02
0.205916961357846E+02
0.257389791780919E+02
0.252782003489333E+02
0.248246937930873E+02
0.243827507818486E+02
0.239564503471059E+02
0.235496342849786E+02
0.231658869685608E+02
0.228085193091028E+02
0.224805561973536E+02
0.221847267941988E+02
0.219234571103560E+02
0.216988644060166E+02
0.215127530404739E+02
0.213666114978611E+02
0.212616103992925E+02
0.211986013779394E+02
0.211781167390239E+02
0.262239781867549E+02
0.257725027054501E+02
0.253282940603659E+02
0.248955502596562E+02
0.244782560439015E+02
0.240801588763847E+02
0.237047498368492E+02
0.233552487454436E+02
0.230345928295746E+02
0.227454282777014E+02
0.224901040893818E+02
0.222706677178337E+02
0.220888620978075E+02
0.219461237468840E+02
0.218435817137148E+02
0.217820572162405E+02
0.217620638635786E+02
0.267036881456305E+02
0.262612649087365E+02
0.258260999019225E+02
0.254023005135667E+02
0.249937599928548E+02
0.246041343912266E+02
0.242368244940199E+02
0.238949620571781E+02
0.235813996439258E+02
0.232987033819019E+02
0.230491480214788E+02
0.228347137590187E+02
0.226570843828809E+02
0.225176463945784E+02
0.224174888440377E+02
0.223574036905141E+02
0.223378865562555E+02
0.271732741445496E+02
0.267395717383568E+02
0.263131161403012E+02
0.258979275561036E+02
0.254978113341545E+02
0.251163358149349E+02
0.247568152493542E+02
0.244222970898900E+02
0.241155529329070E+02
0.238390724107897E+02
0.235950593880751E+02
0.233854298951230E+02
0.232118113246229E+02
0.230755425101175E+02
0.229776743933558E+02
0.229189710627314E+02
0.228999110051593E+02
0.276278793098149E+02
0.272024906387237E+02
0.267843349938034E+02
0.263773495785174E+02
0.259852561666856E+02
0.256115398097326E+02
0.252594326834479E+02
0.249319023680708E+02
0.246316438249075E+02
0.243610743480481E+02
0.241223308209797E+02
0.239172686838588E+02
0.237474621068318E+02
0.236142049580236E+02
0.235185122434182E+02
0.234611217739272E+02
0.234424958792167E+02
0.280626819565778E+02
0.276451292346710E+02
0.272347939368011E+02
0.268355351344175E+02
0.264509960312617E+02
0.260845834721154E+02
0.257394526535854E+02
0.254184963216032E+02
0.251243377050822E+02
0.248593264460764E+02
0.246255368340763E+02
0.244247677249499E+02
0.242585436127103E+02
0.241281164149182E+02
0.240344676220117E+02
0.239783105413086E+02
0.239600924345113E+02
0.284729577940260E+02
0.280626978357356E+02
0.276596384819787E+02
0.272675661766256E+02
0.268900511773139E+02
0.265304278039308E+02
0.261917799437989E+02
0.258769310900540E+02
0.255884381503180E+02
0.253285882696596E+02
0.250993979555793E+02
0.249026138628353E+02
0.247397146818339E+02
0.246119136663827E+02
0.245201614268686E+02
0.244651486975190E+02
0.244473088579122E+02
0.288541461017079E+02
0.284505758610298E+02
0.280541888307712E+02
0.276687049085750E+02
0.272976275898786E+02
0.269442248896429E+02
0.266115155679184E+02
0.263022599284977E+02
0.260189544168390E+02
0.257638292467761E+02
0.255388483261153E+02
0.253457108188191E+02
0.251858537657991E+02
0.250604552779184E+02
0.249704379057559E+02
0.249164718751743E+02
0.248989779522855E+02
0.292019184526247E+02
0.288043807720649E+02
0.284140089919437E+02
0.280344630634810E+02
0.276691864039121E+02
0.273213874209188E+02
0.269940263809167E+02
0.266898068841416E+02
0.264111711632084E+02
0.261602984220315E+02
0.259391054698183E+02
0.257492489702663E+02
0.255921287090249E+02
0.254688913736217E+02
0.253804344315946E+02
0.253274097787185E+02
0.253102269064246E+02
0.295122482575417E+02
0.291200377972681E+02
0.287349766621946E+02
0.283606719160365E+02
0.280005140221159E+02
0.276576588965202E+02
0.273350153384845E+02
0.270352370955536E+02
0.267607187720592E+02
0.265135947869947E+02
0.262957406228157E+02
0.261087756702348E+02
0.259540670558125E+02
0.258327339298939E+02
0.257456517844916E+02
0.256934564582775E+02
0.256765475653342E+02
0.297814791695573E+02
0.293938484938164E+02
0.290133519218095E+02
0.286435510877757E+02
0.282877910061231E+02
0.279491825764847E+02
0.276305904931979E+02
0.273346258122693E+02
0.270636423775641E+02
0.268197363032695E+02
0.266047477431307E+02
0.264202642389254E+02
0.262676250213600E+02
0.261479257269920E+02
0.260620230872521E+02
0.260105392343867E+02
0.259938653505415E+02
0.300063902395757E+02
0.296225560413283E+02
0.292458426445703E+02
0.288797740506727E+02
0.285276576515680E+02
0.281925671075430E+02
0.278773306509618E+02
0.275845240653455E+02
0.273164675360577E+02
0.270752255623363E+02
0.268626091522450E+02
0.266801795828014E+02
0.265292530874330E+02
0.264109059230618E+02
0.263259793619242E+02
0.262750842429420E+02
0.262586048004029E+02
0.301842556681973E+02
0.298034051144484E+02
0.294296644711642E+02
0.290665281810827E+02
0.287172741025884E+02
0.283849466792462E+02
0.280723455514971E+02
0.277820188571542E+02
0.275162604127161E+02
0.272771099596160E+02
0.270663556900986E+02
0.268855383271153E+02
0.267359561118792E+02
0.266186701426633E+02
0.265345096014870E+02
0.264840764957833E+02
0.264677496262799E+02
0.303128970673859E+02
0.299341942473227E+02
0.295625932593470E+02
0.292015672781160E+02
0.288543729212330E+02
0.285240336281315E+02
0.282133284924453E+02
0.279247857925227E+02
0.276606804091106E+02
0.274230343103367E+02
0.272136193138098E+02
0.270339613946455E+02
0.268853458870250E+02
0.267688230166826E+02
0.266852132949634E+02
0.266351123960621E+02
0.266188952240439E+02
0.303907263280800E+02
0.300133187845393E+02
0.296430081043478E+02
0.292832546393623E+02
0.289373022045952E+02
0.286081615830926E+02
0.282985994909769E+02
0.280111322461371E+02
0.277480233278045E+02
0.275112840047646E+02
0.273026762391144E+02
0.271237171310410E+02
0.269756842486255E+02
0.268596212763729E+02
0.267763435095230E+02
0.267264428124800E+02
0.267102917451916E+02
0.304167774815002E+02
0.300398028041367E+02
0.296699233133809E+02
0.293105950764931E+02
0.289650576312720E+02
0.286363175329939E+02
0.283271373637238E+02
0.280400294470908E+02
0.277772534551714E+02
0.275408170844411E+02
0.273324790067368E+02
0.271537533595967E+02
0.270059151187851E+02
0.268900057854733E+02
0.268068389139382E+02
0.267570050970287E+02
0.267408761123107E+02
</DataArray>
</PointData>
</Piece>
</RectilinearGrid>
</VTKFile>
