<?xml version="1.0"?>
<VTKFile type="RectilinearGrid" version="0.1" byte_order="LittleEndian">
<RectilinearGrid WholeExtent="0   63    0   63    0    3">
<Piece Extent="31   47    0   15    0    3">
<Coordinates>
<DataArray Name="x" type="Float32" format="ascii">
0.310000000000000E+01
0.320000000000000E+01
0.330000000000000E+01
0.340000000000000E+01
0.350000000000000E+01
0.360000000000000E+01
0.370000000000000E+01
0.380000000000000E+01
0.390000000000000E+01
0.400000000000000E+01
0.410000000000000E+01
0.420000000000000E+01
0.430000000000000E+01
0.440000000000000E+01
0.450000000000000E+01
0.460000000000000E+01
0.470000000000000E+01
</DataArray>
<DataArray Name="y" type="Float32" format="ascii">
0.000000000000000E+00
0.100000000000000E+00
0.200000000000000E+00
0.300000000000000E+00
0.400000000000000E+00
0.500000000000000E+00
0.600000000000000E+00
0.700000000000000E+00
0.800000000000000E+00
0.900000000000000E+00
0.100000000000000E+01
0.110000000000000E+01
0.120000000000000E+01
0.130000000000000E+01
0.140000000000000E+01
0.150000000000000E+01
</DataArray>
<DataArray Name="z" type="Float32" format="ascii">
0.000000000000000E+00
0.100000000000000E+00
0.200000000000000E+00
0.300000000000000E+00
</DataArray>
</Coordinates>
<PointData Scalars="c">
<DataArray type="Float32" Name="c" format="ascii">
0.264304424332103E+02
0.264480123839540E+02
0.264976964903351E+02
0.265792048174487E+02
0.266920137271227E+02
0.268353658697262E+02
0.270082700730537E+02
0.272095013225853E+02
0.274376010934521E+02
0.276908783561354E+02
0.279674116329225E+02
0.282650525275237E+02
0.285814311827212E+02
0.289139641369370E+02
0.292598650467040E+02
0.296161587150599E+02
0.299796988134517E+02
0.263519737616753E+02
0.263696002266410E+02
0.264194488823851E+02
0.265012281358397E+02
0.266144115499896E+02
0.267582378794452E+02
0.269317110182332E+02
0.271336000524943E+02
0.273624396765004E+02
0.276165312918852E+02
0.278939451648570E+02
0.281925240615209E+02
0.285098888139714E+02
0.288434462859901E+02
0.291904002034962E+02
0.295477652882081E+02
0.299123850808385E+02
0.262221485504556E+02
0.262398687220101E+02
0.262899902330753E+02
0.263722187375873E+02
0.264860231521686E+02
0.266306357645143E+02
0.268050522791895E+02
0.270080319908393E+02
0.272380983400292E+02
0.274935401680511E+02
0.277724140417047E+02
0.280725480643825E+02
0.283915476224386E+02
0.287268035322495E+02
0.290755030500570E+02
0.294346441804428E+02
0.298010536676563E+02
0.260423853389381E+02
0.260602356846594E+02
0.261107362684178E+02
0.261935889123792E+02
0.263082560670682E+02
0.264539610214182E+02
0.266296880854019E+02
0.268341829314870E+02
0.270659533456563E+02
0.273232706993462E+02
0.276041725080445E+02
0.279064664875585E+02
0.282277365517750E+02
0.285653512125219E+02
0.289164748393377E+02
0.292780822113493E+02
0.296469767425353E+02
0.258146399000114E+02
0.258326558746097E+02
0.258836388283331E+02
0.259672856955622E+02
0.260830506803144E+02
0.262301455965021E+02
0.264075402258158E+02
0.266139628746431E+02
0.268479013750063E+02
0.271076048344639E+02
0.273910864939444E+02
0.276961280976796E+02
0.280202862124286E+02
0.283609009504277E+02
0.287151075483636E+02
0.290798512298825E+02
0.294519057291239E+02
0.255413761134983E+02
0.255595918727467E+02
0.256111567465755E+02
0.256957617552877E+02
0.258128511272478E+02
0.259616227974677E+02
0.261410289785875E+02
0.263497769797560E+02
0.265863305113603E+02
0.268489117727201E+02
0.271355046734353E+02
0.274438595841944E+02
0.277715000461272E+02
0.281157318855932E+02
0.284736551799743E+02
0.288421794962517E+02
0.292180427752405E+02
0.252255299642709E+02
0.252439780817712E+02
0.252962198582717E+02
0.253819394106984E+02
0.255005693262881E+02
0.256512913470494E+02
0.258330371909130E+02
0.260444896781073E+02
0.262840843924054E+02
0.265500121651108E+02
0.268402227227013E+02
0.271524298840594E+02
0.274841187268036E+02
0.278325551607033E+02
0.281947983458002E+02
0.285677163702541E+02
0.289480055553431E+02
0.248704676468800E+02
0.248891788346884E+02
0.249421871177425E+02
0.250291687648919E+02
0.251495431333573E+02
0.253024735658653E+02
0.254868684980354E+02
0.257013829365261E+02
0.259444205280341E+02
0.262141364963637E+02
0.265084417772330E+02
0.268250087253738E+02
0.271612788024160E+02
0.275144726732814E+02
0.278816031395636E+02
0.282594913171287E+02
0.286447864191102E+02
0.244799388710799E+02
0.244989417054662E+02
0.245527999220369E+02
0.246411810494127E+02
0.247634897159209E+02
0.249188687852535E+02
0.251062007848698E+02
0.253241097785973E+02
0.255709638927320E+02
0.258448787608343E+02
0.261437222041776E+02
0.264651205095641E+02
0.268064667005479E+02
0.271649312182089E+02
0.275374754296239E+02
0.279208683624908E+02
0.283117070200234E+02
0.240580265234119E+02
0.240773471773263E+02
0.241321317965935E+02
0.242220383382647E+02
0.243464553068052E+02
0.245045031529344E+02
0.246950360562262E+02
0.249166442328625E+02
0.251676569658509E+02
0.254461466095420E+02
0.257499338712783E+02
0.260765947176145E+02
0.264234692873111E+02
0.267876732143699E+02
0.271661117677830E+02
0.275554971966989E+02
0.279523696272987E+02
0.236090938488900E+02
0.236287558330561E+02
0.236845356085083E+02
0.237760807987327E+02
0.239027625075490E+02
0.240636770043409E+02
0.242576478920797E+02
0.244832288885080E+02
0.247387074046531E+02
0.250221091578584E+02
0.253312041066764E+02
0.256635140394120E+02
0.260163221833448E+02
0.263866852237828E+02
0.267714481270403E+02
0.271672621453637E+02
0.275706063415324E+02
0.231377302769258E+02
0.231577541918626E+02
0.232145894331337E+02
0.233078726067242E+02
0.234369562717320E+02
0.236009109334544E+02
0.237985276257114E+02
0.240283212008391E+02
0.242885344972884E+02
0.245771436061521E+02
0.248918645071902E+02
0.252301613891827E+02
0.255892570052030E+02
0.259661454366745E+02
0.263576076466819E+02
0.267602301889981E+02
0.271704274013008E+02
0.226486969329826E+02
0.226691002346657E+02
0.227270421171748E+02
0.228221475719012E+02
0.229537496164290E+02
0.231208916148852E+02
0.233223303006728E+02
0.235565396072386E+02
0.238217154615660E+02
0.241157817447238E+02
0.244363976720678E+02
0.247809668897575E+02
0.251466486205733E+02
0.255303712165140E+02
0.259288484840623E+02
0.263385991362025E+02
0.267559696897718E+02
0.221468727604238E+02
0.221676695427075E+02
0.222267594644407E+02
0.223237554008767E+02
0.224579699929660E+02
0.226284183119942E+02
0.228338213456240E+02
0.230726103974466E+02
0.233429325385795E+02
0.236426572976277E+02
0.239693848225505E+02
0.243204557918389E+02
0.246929633893170E+02
0.250837676826873E+02
0.254895127562449E+02
0.259066469387413E+02
0.263314464345131E+02
0.216372020356197E+02
0.216584028329354E+02
0.217186718289265E+02
0.218176093851608E+02
0.219545071064224E+02
0.221283508639402E+02
0.223378247639723E+02
0.225813161396455E+02
0.228569216876361E+02
0.231624549171084E+02
0.234954551244573E+02
0.238531981510465E+02
0.242327092186660E+02
0.246307781646047E+02
0.250439774105491E+02
0.254686829925475E+02
0.259010989491920E+02
0.211246439043824E+02
0.211462555185744E+02
0.212077237447097E+02
0.213086361451103E+02
0.214482628175560E+02
0.216255597883492E+02
0.218391734785595E+02
0.220874463065977E+02
0.223684235310987E+02
0.226798614818905E+02
0.230192373718249E+02
0.233837609256610E+02
0.237703881003652E+02
0.241758371998000E+02
0.245966077011663E+02
0.250290021061771E+02
0.254691511027543E+02
0.264304424332103E+02
0.264480123839540E+02
0.264976964903351E+02
0.265792048174487E+02
0.266920137271227E+02
0.268353658697262E+02
0.270082700730537E+02
0.272095013225853E+02
0.274376010934521E+02
0.276908783561354E+02
0.279674116329225E+02
0.282650525275237E+02
0.285814311827212E+02
0.289139641369370E+02
0.292598650467040E+02
0.296161587150599E+02
0.299796988134517E+02
0.263519737616753E+02
0.263696002266410E+02
0.264194488823851E+02
0.265012281358397E+02
0.266144115499896E+02
0.267582378794452E+02
0.269317110182332E+02
0.271336000524943E+02
0.273624396765004E+02
0.276165312918852E+02
0.278939451648570E+02
0.281925240615209E+02
0.285098888139714E+02
0.288434462859901E+02
0.291904002034962E+02
0.295477652882081E+02
0.299123850808385E+02
0.262221485504556E+02
0.262398687220101E+02
0.262899902330753E+02
0.263722187375873E+02
0.264860231521686E+02
0.266306357645143E+02
0.268050522791895E+02
0.270080319908393E+02
0.272380983400292E+02
0.274935401680511E+02
0.277724140417047E+02
0.280725480643825E+02
0.283915476224386E+02
0.287268035322495E+02
0.290755030500570E+02
0.294346441804428E+02
0.298010536676563E+02
0.260423853389381E+02
0.260602356846594E+02
0.261107362684178E+02
0.261935889123792E+02
0.263082560670682E+02
0.264539610214182E+02
0.266296880854019E+02
0.268341829314870E+02
0.270659533456563E+02
0.273232706993462E+02
0.276041725080445E+02
0.279064664875585E+02
0.282277365517750E+02
0.285653512125219E+02
0.289164748393377E+02
0.292780822113493E+02
0.296469767425353E+02
0.258146399000114E+02
0.258326558746097E+02
0.258836388283331E+02
0.259672856955622E+02
0.260830506803144E+02
0.262301455965021E+02
0.264075402258158E+02
0.266139628746431E+02
0.268479013750063E+02
0.271076048344639E+02
0.273910864939444E+02
0.276961280976796E+02
0.280202862124286E+02
0.283609009504277E+02
0.287151075483636E+02
0.290798512298825E+02
0.294519057291239E+02
0.255413761134983E+02
0.255595918727467E+02
0.256111567465755E+02
0.256957617552877E+02
0.258128511272478E+02
0.259616227974677E+02
0.261410289785875E+02
0.263497769797560E+02
0.265863305113603E+02
0.268489117727201E+02
0.271355046734353E+02
0.274438595841944E+02
0.277715000461272E+02
0.281157318855932E+02
0.284736551799743E+02
0.288421794962517E+02
0.292180427752405E+02
0.252255299642709E+02
0.252439780817712E+02
0.252962198582717E+02
0.253819394106984E+02
0.255005693262881E+02
0.256512913470494E+02
0.258330371909130E+02
0.260444896781073E+02
0.262840843924054E+02
0.265500121651108E+02
0.268402227227013E+02
0.271524298840594E+02
0.274841187268036E+02
0.278325551607033E+02
0.281947983458002E+02
0.285677163702541E+02
0.289480055553431E+02
0.248704676468800E+02
0.248891788346884E+02
0.249421871177425E+02
0.250291687648919E+02
0.251495431333573E+02
0.253024735658653E+02
0.254868684980354E+02
0.257013829365261E+02
0.259444205280341E+02
0.262141364963637E+02
0.265084417772330E+02
0.268250087253738E+02
0.271612788024160E+02
0.275144726732814E+02
0.278816031395636E+02
0.282594913171287E+02
0.286447864191102E+02
0.244799388710799E+02
0.244989417054662E+02
0.245527999220369E+02
0.246411810494127E+02
0.247634897159209E+02
0.249188687852535E+02
0.251062007848698E+02
0.253241097785973E+02
0.255709638927320E+02
0.258448787608343E+02
0.261437222041776E+02
0.264651205095641E+02
0.268064667005479E+02
0.271649312182089E+02
0.275374754296239E+02
0.279208683624908E+02
0.283117070200234E+02
0.240580265234119E+02
0.240773471773263E+02
0.241321317965935E+02
0.242220383382647E+02
0.243464553068052E+02
0.245045031529344E+02
0.246950360562262E+02
0.249166442328625E+02
0.251676569658509E+02
0.254461466095420E+02
0.257499338712783E+02
0.260765947176145E+02
0.264234692873111E+02
0.267876732143699E+02
0.271661117677830E+02
0.275554971966989E+02
0.279523696272987E+02
0.236090938488900E+02
0.236287558330561E+02
0.236845356085083E+02
0.237760807987327E+02
0.239027625075490E+02
0.240636770043409E+02
0.242576478920797E+02
0.244832288885080E+02
0.247387074046531E+02
0.250221091578584E+02
0.253312041066764E+02
0.256635140394120E+02
0.260163221833448E+02
0.263866852237828E+02
0.267714481270403E+02
0.271672621453637E+02
0.275706063415324E+02
0.231377302769258E+02
0.231577541918626E+02
0.232145894331337E+02
0.233078726067242E+02
0.234369562717320E+02
0.236009109334544E+02
0.237985276257114E+02
0.240283212008391E+02
0.242885344972884E+02
0.245771436061521E+02
0.248918645071902E+02
0.252301613891827E+02
0.255892570052030E+02
0.259661454366745E+02
0.263576076466819E+02
0.267602301889981E+02
0.271704274013008E+02
0.226486969329826E+02
0.226691002346657E+02
0.227270421171748E+02
0.228221475719012E+02
0.229537496164290E+02
0.231208916148852E+02
0.233223303006728E+02
0.235565396072386E+02
0.238217154615660E+02
0.241157817447238E+02
0.244363976720678E+02
0.247809668897575E+02
0.251466486205733E+02
0.255303712165140E+02
0.259288484840623E+02
0.263385991362025E+02
0.267559696897718E+02
0.221468727604238E+02
0.221676695427075E+02
0.222267594644407E+02
0.223237554008767E+02
0.224579699929660E+02
0.226284183119942E+02
0.228338213456240E+02
0.230726103974466E+02
0.233429325385795E+02
0.236426572976277E+02
0.239693848225505E+02
0.243204557918389E+02
0.246929633893170E+02
0.250837676826873E+02
0.254895127562449E+02
0.259066469387413E+02
0.263314464345131E+02
0.216372020356197E+02
0.216584028329354E+02
0.217186718289265E+02
0.218176093851608E+02
0.219545071064224E+02
0.221283508639402E+02
0.223378247639723E+02
0.225813161396455E+02
0.228569216876361E+02
0.231624549171084E+02
0.234954551244573E+02
0.238531981510465E+02
0.242327092186660E+02
0.246307781646047E+02
0.250439774105491E+02
0.254686829925475E+02
0.259010989491920E+02
0.211246439043824E+02
0.211462555185744E+02
0.212077237447097E+02
0.213086361451103E+02
0.214482628175560E+02
0.216255597883492E+02
0.218391734785595E+02
0.220874463065977E+02
0.223684235310987E+02
0.226798614818905E+02
0.230192373718249E+02
0.233837609256610E+02
0.237703881003652E+02
0.241758371998000E+02
0.245966077011663E+02
0.250290021061771E+02
0.254691511027543E+02
0.264304424332103E+02
0.264480123839540E+02
0.264976964903351E+02
0.265792048174487E+02
0.266920137271227E+02
0.268353658697262E+02
0.270082700730537E+02
0.272095013225853E+02
0.274376010934521E+02
0.276908783561354E+02
0.279674116329225E+02
0.282650525275237E+02
0.285814311827212E+02
0.289139641369370E+02
0.292598650467040E+02
0.296161587150599E+02
0.299796988134517E+02
0.263519737616753E+02
0.263696002266410E+02
0.264194488823851E+02
0.265012281358397E+02
0.266144115499896E+02
0.267582378794452E+02
0.269317110182332E+02
0.271336000524943E+02
0.273624396765004E+02
0.276165312918852E+02
0.278939451648570E+02
0.281925240615209E+02
0.285098888139714E+02
0.288434462859901E+02
0.291904002034962E+02
0.295477652882081E+02
0.299123850808385E+02
0.262221485504556E+02
0.262398687220101E+02
0.262899902330753E+02
0.263722187375873E+02
0.264860231521686E+02
0.266306357645143E+02
0.268050522791895E+02
0.270080319908393E+02
0.272380983400292E+02
0.274935401680511E+02
0.277724140417047E+02
0.280725480643825E+02
0.283915476224386E+02
0.287268035322495E+02
0.290755030500570E+02
0.294346441804428E+02
0.298010536676563E+02
0.260423853389381E+02
0.260602356846594E+02
0.261107362684178E+02
0.261935889123792E+02
0.263082560670682E+02
0.264539610214182E+02
0.266296880854019E+02
0.268341829314870E+02
0.270659533456563E+02
0.273232706993462E+02
0.276041725080445E+02
0.279064664875585E+02
0.282277365517750E+02
0.285653512125219E+02
0.289164748393377E+02
0.292780822113493E+02
0.296469767425353E+02
0.258146399000114E+02
0.258326558746097E+02
0.258836388283331E+02
0.259672856955622E+02
0.260830506803144E+02
0.262301455965021E+02
0.264075402258158E+02
0.266139628746431E+02
0.268479013750063E+02
0.271076048344639E+02
0.273910864939444E+02
0.276961280976796E+02
0.280202862124286E+02
0.283609009504277E+02
0.287151075483636E+02
0.290798512298825E+02
0.294519057291239E+02
0.255413761134983E+02
0.255595918727467E+02
0.256111567465755E+02
0.256957617552877E+02
0.258128511272478E+02
0.259616227974677E+02
0.261410289785875E+02
0.263497769797560E+02
0.265863305113603E+02
0.268489117727201E+02
0.271355046734353E+02
0.274438595841944E+02
0.277715000461272E+02
0.281157318855932E+02
0.284736551799743E+02
0.288421794962517E+02
0.292180427752405E+02
0.252255299642709E+02
0.252439780817712E+02
0.252962198582717E+02
0.253819394106984E+02
0.255005693262881E+02
0.256512913470494E+02
0.258330371909130E+02
0.260444896781073E+02
0.262840843924054E+02
0.265500121651108E+02
0.268402227227013E+02
0.271524298840594E+02
0.274841187268036E+02
0.278325551607033E+02
0.281947983458002E+02
0.285677163702541E+02
0.289480055553431E+02
0.248704676468800E+02
0.248891788346884E+02
0.249421871177425E+02
0.250291687648919E+02
0.251495431333573E+02
0.253024735658653E+02
0.254868684980354E+02
0.257013829365261E+02
0.259444205280341E+02
0.262141364963637E+02
0.265084417772330E+02
0.268250087253738E+02
0.271612788024160E+02
0.275144726732814E+02
0.278816031395636E+02
0.282594913171287E+02
0.286447864191102E+02
0.244799388710799E+02
0.244989417054662E+02
0.245527999220369E+02
0.246411810494127E+02
0.247634897159209E+02
0.249188687852535E+02
0.251062007848698E+02
0.253241097785973E+02
0.255709638927320E+02
0.258448787608343E+02
0.261437222041776E+02
0.264651205095641E+02
0.268064667005479E+02
0.271649312182089E+02
0.275374754296239E+02
0.279208683624908E+02
0.283117070200234E+02
0.240580265234119E+02
0.240773471773263E+02
0.241321317965935E+02
0.242220383382647E+02
0.243464553068052E+02
0.245045031529344E+02
0.246950360562262E+02
0.249166442328625E+02
0.251676569658509E+02
0.254461466095420E+02
0.257499338712783E+02
0.260765947176145E+02
0.264234692873111E+02
0.267876732143699E+02
0.271661117677830E+02
0.275554971966989E+02
0.279523696272987E+02
0.236090938488900E+02
0.236287558330561E+02
0.236845356085083E+02
0.237760807987327E+02
0.239027625075490E+02
0.240636770043409E+02
0.242576478920797E+02
0.244832288885080E+02
0.247387074046531E+02
0.250221091578584E+02
0.253312041066764E+02
0.256635140394120E+02
0.260163221833448E+02
0.263866852237828E+02
0.267714481270403E+02
0.271672621453637E+02
0.275706063415324E+02
0.231377302769258E+02
0.231577541918626E+02
0.232145894331337E+02
0.233078726067242E+02
0.234369562717320E+02
0.236009109334544E+02
0.237985276257114E+02
0.240283212008391E+02
0.242885344972884E+02
0.245771436061521E+02
0.248918645071902E+02
0.252301613891827E+02
0.255892570052030E+02
0.259661454366745E+02
0.263576076466819E+02
0.267602301889981E+02
0.271704274013008E+02
0.226486969329826E+02
0.226691002346657E+02
0.227270421171748E+02
0.228221475719012E+02
0.229537496164290E+02
0.231208916148852E+02
0.233223303006728E+02
0.235565396072386E+02
0.238217154615660E+02
0.241157817447238E+02
0.244363976720678E+02
0.247809668897575E+02
0.251466486205733E+02
0.255303712165140E+02
0.259288484840623E+02
0.263385991362025E+02
0.267559696897718E+02
0.221468727604238E+02
0.221676695427075E+02
0.222267594644407E+02
0.223237554008767E+02
0.224579699929660E+02
0.226284183119942E+02
0.228338213456240E+02
0.230726103974466E+02
0.233429325385795E+02
0.236426572976277E+02
0.239693848225505E+02
0.243204557918389E+02
0.246929633893170E+02
0.250837676826873E+02
0.254895127562449E+02
0.259066469387413E+02
0.263314464345131E+02
0.216372020356197E+02
0.216584028329354E+02
0.217186718289265E+02
0.218176093851608E+02
0.219545071064224E+02
0.221283508639402E+02
0.223378247639723E+02
0.225813161396455E+02
0.228569216876361E+02
0.231624549171084E+02
0.234954551244573E+02
0.238531981510465E+02
0.242327092186660E+02
0.246307781646047E+02
0.250439774105491E+02
0.254686829925475E+02
0.259010989491920E+02
0.211246439043824E+02
0.211462555185744E+02
0.212077237447097E+02
0.213086361451103E+02
0.214482628175560E+02
0.216255597883492E+02
0.218391734785595E+02
0.220874463065977E+02
0.223684235310987E+02
0.226798614818905E+02
0.230192373718249E+02
0.233837609256610E+02
0.237703881003652E+02
0.241758371998000E+02
0.245966077011663E+02
0.250290021061771E+02
0.254691511027543E+02
0.264304424332103E+02
0.264480123839540E+02
0.264976964903351E+02
0.265792048174487E+02
0.266920137271227E+02
0.268353658697262E+02
0.270082700730537E+02
0.272095013225853E+02
0.274376010934521E+02
0.276908783561354E+02
0.279674116329225E+02
0.282650525275237E+02
0.285814311827212E+02
0.289139641369370E+02
0.292598650467040E+02
0.296161587150599E+02
0.299796988134517E+02
0.263519737616753E+02
0.263696002266410E+02
0.264194488823851E+02
0.265012281358397E+02
0.266144115499896E+02
0.267582378794452E+02
0.269317110182332E+02
0.271336000524943E+02
0.273624396765004E+02
0.276165312918852E+02
0.278939451648570E+02
0.281925240615209E+02
0.285098888139714E+02
0.288434462859901E+02
0.291904002034962E+02
0.295477652882081E+02
0.299123850808385E+02
0.262221485504556E+02
0.262398687220101E+02
0.262899902330753E+02
0.263722187375873E+02
0.264860231521686E+02
0.266306357645143E+02
0.268050522791895E+02
0.270080319908393E+02
0.272380983400292E+02
0.274935401680511E+02
0.277724140417047E+02
0.280725480643825E+02
0.283915476224386E+02
0.287268035322495E+02
0.290755030500570E+02
0.294346441804428E+02
0.298010536676563E+02
0.260423853389381E+02
0.260602356846594E+02
0.261107362684178E+02
0.261935889123792E+02
0.263082560670682E+02
0.264539610214182E+02
0.266296880854019E+02
0.268341829314870E+02
0.270659533456563E+02
0.273232706993462E+02
0.276041725080445E+02
0.279064664875585E+02
0.282277365517750E+02
0.285653512125219E+02
0.289164748393377E+02
0.292780822113493E+02
0.296469767425353E+02
0.258146399000114E+02
0.258326558746097E+02
0.258836388283331E+02
0.259672856955622E+02
0.260830506803144E+02
0.262301455965021E+02
0.264075402258158E+02
0.266139628746431E+02
0.268479013750063E+02
0.271076048344639E+02
0.273910864939444E+02
0.276961280976796E+02
0.280202862124286E+02
0.283609009504277E+02
0.287151075483636E+02
0.290798512298825E+02
0.294519057291239E+02
0.255413761134983E+02
0.255595918727467E+02
0.256111567465755E+02
0.256957617552877E+02
0.258128511272478E+02
0.259616227974677E+02
0.261410289785875E+02
0.263497769797560E+02
0.265863305113603E+02
0.268489117727201E+02
0.271355046734353E+02
0.274438595841944E+02
0.277715000461272E+02
0.281157318855932E+02
0.284736551799743E+02
0.288421794962517E+02
0.292180427752405E+02
0.252255299642709E+02
0.252439780817712E+02
0.252962198582717E+02
0.253819394106984E+02
0.255005693262881E+02
0.256512913470494E+02
0.258330371909130E+02
0.260444896781073E+02
0.262840843924054E+02
0.265500121651108E+02
0.268402227227013E+02
0.271524298840594E+02
0.274841187268036E+02
0.278325551607033E+02
0.281947983458002E+02
0.285677163702541E+02
0.289480055553431E+02
0.248704676468800E+02
0.248891788346884E+02
0.249421871177425E+02
0.250291687648919E+02
0.251495431333573E+02
0.253024735658653E+02
0.254868684980354E+02
0.257013829365261E+02
0.259444205280341E+02
0.262141364963637E+02
0.265084417772330E+02
0.268250087253738E+02
0.271612788024160E+02
0.275144726732814E+02
0.278816031395636E+02
0.282594913171287E+02
0.286447864191102E+02
0.244799388710799E+02
0.244989417054662E+02
0.245527999220369E+02
0.246411810494127E+02
0.247634897159209E+02
0.249188687852535E+02
0.251062007848698E+02
0.253241097785973E+02
0.255709638927320E+02
0.258448787608343E+02
0.261437222041776E+02
0.264651205095641E+02
0.268064667005479E+02
0.271649312182089E+02
0.275374754296239E+02
0.279208683624908E+02
0.283117070200234E+02
0.240580265234119E+02
0.240773471773263E+02
0.241321317965935E+02
0.242220383382647E+02
0.243464553068052E+02
0.245045031529344E+02
0.246950360562262E+02
0.249166442328625E+02
0.251676569658509E+02
0.254461466095420E+02
0.257499338712783E+02
0.260765947176145E+02
0.264234692873111E+02
0.267876732143699E+02
0.271661117677830E+02
0.275554971966989E+02
0.279523696272987E+02
0.236090938488900E+02
0.236287558330561E+02
0.236845356085083E+02
0.237760807987327E+02
0.239027625075490E+02
0.240636770043409E+02
0.242576478920797E+02
0.244832288885080E+02
0.247387074046531E+02
0.250221091578584E+02
0.253312041066764E+02
0.256635140394120E+02
0.260163221833448E+02
0.263866852237828E+02
0.267714481270403E+02
0.271672621453637E+02
0.275706063415324E+02
0.231377302769258E+02
0.231577541918626E+02
0.232145894331337E+02
0.233078726067242E+02
0.234369562717320E+02
0.236009109334544E+02
0.237985276257114E+02
0.240283212008391E+02
0.242885344972884E+02
0.245771436061521E+02
0.248918645071902E+02
0.252301613891827E+02
0.255892570052030E+02
0.259661454366745E+02
0.263576076466819E+02
0.267602301889981E+02
0.271704274013008E+02
0.226486969329826E+02
0.226691002346657E+02
0.227270421171748E+02
0.228221475719012E+02
0.229537496164290E+02
0.231208916148852E+02
0.233223303006728E+02
0.235565396072386E+02
0.238217154615660E+02
0.241157817447238E+02
0.244363976720678E+02
0.247809668897575E+02
0.251466486205733E+02
0.255303712165140E+02
0.259288484840623E+02
0.263385991362025E+02
0.267559696897718E+02
0.221468727604238E+02
0.221676695427075E+02
0.222267594644407E+02
0.223237554008767E+02
0.224579699929660E+02
0.226284183119942E+02
0.228338213456240E+02
0.230726103974466E+02
0.233429325385795E+02
0.236426572976277E+02
0.239693848225505E+02
0.243204557918389E+02
0.246929633893170E+02
0.250837676826873E+02
0.254895127562449E+02
0.259066469387413E+02
0.263314464345131E+02
0.216372020356197E+02
0.216584028329354E+02
0.217186718289265E+02
0.218176093851608E+02
0.219545071064224E+02
0.221283508639402E+02
0.223378247639723E+02
0.225813161396455E+02
0.228569216876361E+02
0.231624549171084E+02
0.234954551244573E+02
0.238531981510465E+02
0.242327092186660E+02
0.246307781646047E+02
0.250439774105491E+02
0.254686829925475E+02
0.259010989491920E+02
0.211246439043824E+02
0.211462555185744E+02
0.212077237447097E+02
0.213086361451103E+02
0.214482628175560E+02
0.216255597883492E+02
0.218391734785595E+02
0.220874463065977E+02
0.223684235310987E+02
0.226798614818905E+02
0.230192373718249E+02
0.233837609256610E+02
0.237703881003652E+02
0.241758371998000E+02
0.245966077011663E+02
0.250290021061771E+02
0.254691511027543E+02
</DataArray>
</PointData>
</Piece>
</RectilinearGrid>
</VTKFile>
