<?xml version="1.0"?>
<VTKFile type="RectilinearGrid" version="0.1" byte_order="LittleEndian">
<RectilinearGrid WholeExtent="0   63    0   63    0    3">
<Piece Extent="31   47   31   47    0    3">
<Coordinates>
<DataArray Name="x" type="Float32" format="ascii">
0.310000000000000E+01
0.320000000000000E+01
0.330000000000000E+01
0.340000000000000E+01
0.350000000000000E+01
0.360000000000000E+01
0.370000000000000E+01
0.380000000000000E+01
0.390000000000000E+01
0.400000000000000E+01
0.410000000000000E+01
0.420000000000000E+01
0.430000000000000E+01
0.440000000000000E+01
0.450000000000000E+01
0.460000000000000E+01
0.470000000000000E+01
</DataArray>
<DataArray Name="y" type="Float32" format="ascii">
0.310000000000000E+01
0.320000000000000E+01
0.330000000000000E+01
0.340000000000000E+01
0.350000000000000E+01
0.360000000000000E+01
0.370000000000000E+01
0.380000000000000E+01
0.390000000000000E+01
0.400000000000000E+01
0.410000000000000E+01
0.420000000000000E+01
0.430000000000000E+01
0.440000000000000E+01
0.450000000000000E+01
0.460000000000000E+01
0.470000000000000E+01
</DataArray>
<DataArray Name="z" type="Float32" format="ascii">
0.000000000000000E+00
0.100000000000000E+00
0.200000000000000E+00
0.300000000000000E+00
</DataArray>
</Coordinates>
<PointData Scalars="c">
<DataArray type="Float32" Name="c" format="ascii">
0.117333461806106E+02
0.117699288673217E+02
0.118791455010203E+02
0.120598594045207E+02
0.123102046604428E+02
0.126276386722916E+02
0.130090096978374E+02
0.134506344773151E+02
0.139483803967184E+02
0.144977464096438E+02
0.150939372060713E+02
0.157319258423992E+02
0.164065011798271E+02
0.171122979358823E+02
0.178438088330207E+02
0.185953801099879E+02
0.193611934175352E+02
0.117698534369734E+02
0.118063738351747E+02
0.119154049431936E+02
0.120958138531461E+02
0.123457407593621E+02
0.126626512704175E+02
0.130434036175462E+02
0.134843259028312E+02
0.139812978510231E+02
0.145298313127365E+02
0.151251440305327E+02
0.157622219024674E+02
0.164358661063003E+02
0.171407229002689E+02
0.178712955901321E+02
0.186219399287531E+02
0.193868459657505E+02
0.118789877735179E+02
0.119153225827796E+02
0.120238009106671E+02
0.122033010615243E+02
0.124519814103118E+02
0.127673319746109E+02
0.131462406573818E+02
0.135850693658986E+02
0.140797345407155E+02
0.146257864145980E+02
0.152184815816105E+02
0.158528441711486E+02
0.165237120379701E+02
0.172257658171562E+02
0.179535403508960E+02
0.187014197551269E+02
0.194636191315121E+02
0.120595978547428E+02
0.120956275512296E+02
0.122031970772635E+02
0.123812031098177E+02
0.126278338171652E+02
0.129406192208559E+02
0.133164958594259E+02
0.137518810605851E+02
0.142427514701140E+02
0.147847202753585E+02
0.153731078157837E+02
0.160030009738169E+02
0.166692978353317E+02
0.173667355227758E+02
0.180899007360416E+02
0.188332242720927E+02
0.195909625092275E+02
0.123098004861331E+02
0.123454116666906E+02
0.124517345744330E+02
0.126276909631906E+02
0.128715096705121E+02
0.131807753334127E+02
0.135524909036074E+02
0.139831494066265E+02
0.144688097484757E+02
0.150051711680559E+02
0.155876411804668E+02
0.162113925383534E+02
0.168714058072462E+02
0.175624955316117E+02
0.182793195652777E+02
0.190163728415163E+02
0.197679685421870E+02
0.126270312850780E+02
0.126621187631535E+02
0.127668816766313E+02
0.129402729515649E+02
0.131805719873061E+02
0.134854313347718E+02
0.138519365522512E+02
0.142766748532035E+02
0.147558075417733E+02
0.152851410324341E+02
0.158601914876943E+02
0.164762387667834E+02
0.171283664133306E+02
0.178114857502325E+02
0.185203437034217E+02
0.192495156354504E+02
0.199933861158331E+02
0.130081101225112E+02
0.130425787000936E+02
0.131454979563061E+02
0.133158573505062E+02
0.135519955501492E+02
0.138516447342569E+02
0.142119873490396E+02
0.146297211278638E+02
0.151011275947133E+02
0.156221390782143E+02
0.161883994900328E+02
0.167953147537611E+02
0.174380897664161E+02
0.181117500677271E+02
0.188111478953904E+02
0.195309539142635E+02
0.202656375090633E+02
0.134493164082946E+02
0.134830822689775E+02
0.135839080645539E+02
0.137508243207853E+02
0.139822363416335E+02
0.142759658610359E+02
0.146293043362325E+02
0.150390739150162E+02
0.155016915449326E+02
0.160132315085857E+02
0.165694818841124E+02
0.171659910326583E+02
0.177981011673143E+02
0.184609672986135E+02
0.191495612984337E+02
0.198586623788198E+02
0.205828368341431E+02
0.139464686442055E+02
0.139794603360660E+02
0.140779796549621E+02
0.142411018386077E+02
0.144673047613017E+02
0.147545077213408E+02
0.151001209935765E+02
0.155011024165454E+02
0.159540167502847E+02
0.164550933661114E+02
0.170002780320229E+02
0.175852751285616E+02
0.182055775360774E+02
0.188564826186207E+02
0.195330941158512E+02
0.202303112495262E+02
0.209428078492641E+02
0.144950024959638E+02
0.145271614972524E+02
0.146231997985666E+02
0.147822400824084E+02
0.150028372514663E+02
0.152830142043487E+02
0.156203074540379E+02
0.160118191067952E+02
0.164542712186101E+02
0.169440583811374E+02
0.174772945785924E+02
0.180498508954341E+02
0.186573815122117E+02
0.192953365523372E+02
0.199589616652052E+02
0.206432856637494E+02
0.213430989760153E+02
0.150900419563583E+02
0.151213228400954E+02
0.152147445537072E+02
0.153694790521607E+02
0.155841612603558E+02
0.158569217538246E+02
0.161854283331131E+02
0.165669332636678E+02
0.169983224860379E+02
0.174761629462337E+02
0.179967443727638E+02
0.185561123319377E+02
0.191500902011230E+02
0.197742887648672E+02
0.204241033964271E+02
0.210947001557367E+02
0.217809935179729E+02
0.157264589629071E+02
0.157568291966966E+02
0.158475371344982E+02
0.159978049631231E+02
0.162063492181128E+02
0.164714103463820E+02
0.167907902052563E+02
0.171618945244932E+02
0.175817769247960E+02
0.180471809418655E+02
0.185545766691843E+02
0.191001891047378E+02
0.196800160456659E+02
0.202898343798518E+02
0.209251948158308E+02
0.215814063962805E+02
0.222535134644988E+02
0.163989180379753E+02
0.164283574713712E+02
0.165162913094814E+02
0.166619921234937E+02
0.168642583411592E+02
0.171214407232386E+02
0.174314758275642E+02
0.177919237381507E+02
0.182000069373551E+02
0.186526470652978E+02
0.191464964629379E+02
0.196779618350253E+02
0.202432180796634E+02
0.208382112770661E+02
0.214586509581544E+02
0.220999930135824E+02
0.227574158693466E+02
0.171019040489804E+02
0.171304041517342E+02
0.172155381717785E+02
0.173566284908032E+02
0.175525545326992E+02
0.178017762337243E+02
0.181023635747521E+02
0.184520296959942E+02
0.188481647479888E+02
0.192878675095597E+02
0.197679719444319E+02
0.202850662772396E+02
0.208355028336919E+02
0.214153977783491E+02
0.220206209491151E+02
0.226467771652539E+02
0.232891815939686E+02
0.178297329293309E+02
0.178572958494814E+02
0.179396361437782E+02
0.180761247975700E+02
0.182657203074511E+02
0.185069892654084E+02
0.187981321152135E+02
0.191370118332406E+02
0.195211829509023E+02
0.199479182233677E+02
0.204142303799507E+02
0.209168867716262E+02
0.214524153511143E+02
0.220171012552310E+02
0.226069742652094E+02
0.232177885386214E+02
0.238449971594501E+02
0.185765470276910E+02
0.186031845388680E+02
0.186827658856131E+02
0.188147089176118E+02
0.189980484150957E+02
0.192314539394655E+02
0.195132520120255E+02
0.198414505911026E+02
0.202137635128405E+02
0.206276324587511E+02
0.210802441345964E+02
0.215685406983718E+02
0.220892220539973E+02
0.226387394104691E+02
0.232132804559698E+02
0.238087475577131E+02
0.244207314985044E+02
0.193362985238028E+02
0.193620309268650E+02
0.194389135288059E+02
0.195664088738678E+02
0.197436245355368E+02
0.199693284102785E+02
0.202419675485389E+02
0.205596886958436E+02
0.209203584399996E+02
0.213215807681448E+02
0.217607099507331E+02
0.222348569981790E+02
0.227408884767741E+02
0.232754172062612E+02
0.238347852587772E+02
0.244150406871013E+02
0.250119104606952E+02
0.117333461806106E+02
0.117699288673217E+02
0.118791455010203E+02
0.120598594045207E+02
0.123102046604428E+02
0.126276386722916E+02
0.130090096978374E+02
0.134506344773151E+02
0.139483803967184E+02
0.144977464096438E+02
0.150939372060713E+02
0.157319258423992E+02
0.164065011798271E+02
0.171122979358823E+02
0.178438088330207E+02
0.185953801099879E+02
0.193611934175352E+02
0.117698534369734E+02
0.118063738351747E+02
0.119154049431936E+02
0.120958138531461E+02
0.123457407593621E+02
0.126626512704175E+02
0.130434036175462E+02
0.134843259028312E+02
0.139812978510231E+02
0.145298313127365E+02
0.151251440305327E+02
0.157622219024674E+02
0.164358661063003E+02
0.171407229002689E+02
0.178712955901321E+02
0.186219399287531E+02
0.193868459657505E+02
0.118789877735179E+02
0.119153225827796E+02
0.120238009106671E+02
0.122033010615243E+02
0.124519814103118E+02
0.127673319746109E+02
0.131462406573818E+02
0.135850693658986E+02
0.140797345407155E+02
0.146257864145980E+02
0.152184815816105E+02
0.158528441711486E+02
0.165237120379701E+02
0.172257658171562E+02
0.179535403508960E+02
0.187014197551269E+02
0.194636191315121E+02
0.120595978547428E+02
0.120956275512296E+02
0.122031970772635E+02
0.123812031098177E+02
0.126278338171652E+02
0.129406192208559E+02
0.133164958594259E+02
0.137518810605851E+02
0.142427514701140E+02
0.147847202753585E+02
0.153731078157837E+02
0.160030009738169E+02
0.166692978353317E+02
0.173667355227758E+02
0.180899007360416E+02
0.188332242720927E+02
0.195909625092275E+02
0.123098004861331E+02
0.123454116666906E+02
0.124517345744330E+02
0.126276909631906E+02
0.128715096705121E+02
0.131807753334127E+02
0.135524909036074E+02
0.139831494066265E+02
0.144688097484757E+02
0.150051711680559E+02
0.155876411804668E+02
0.162113925383534E+02
0.168714058072462E+02
0.175624955316117E+02
0.182793195652777E+02
0.190163728415163E+02
0.197679685421870E+02
0.126270312850780E+02
0.126621187631535E+02
0.127668816766313E+02
0.129402729515649E+02
0.131805719873061E+02
0.134854313347718E+02
0.138519365522512E+02
0.142766748532035E+02
0.147558075417733E+02
0.152851410324341E+02
0.158601914876943E+02
0.164762387667834E+02
0.171283664133306E+02
0.178114857502325E+02
0.185203437034217E+02
0.192495156354504E+02
0.199933861158331E+02
0.130081101225112E+02
0.130425787000936E+02
0.131454979563061E+02
0.133158573505062E+02
0.135519955501492E+02
0.138516447342569E+02
0.142119873490396E+02
0.146297211278638E+02
0.151011275947133E+02
0.156221390782143E+02
0.161883994900328E+02
0.167953147537611E+02
0.174380897664161E+02
0.181117500677271E+02
0.188111478953904E+02
0.195309539142635E+02
0.202656375090633E+02
0.134493164082946E+02
0.134830822689775E+02
0.135839080645539E+02
0.137508243207853E+02
0.139822363416335E+02
0.142759658610359E+02
0.146293043362325E+02
0.150390739150162E+02
0.155016915449326E+02
0.160132315085857E+02
0.165694818841124E+02
0.171659910326583E+02
0.177981011673143E+02
0.184609672986135E+02
0.191495612984337E+02
0.198586623788198E+02
0.205828368341431E+02
0.139464686442055E+02
0.139794603360660E+02
0.140779796549621E+02
0.142411018386077E+02
0.144673047613017E+02
0.147545077213408E+02
0.151001209935765E+02
0.155011024165454E+02
0.159540167502847E+02
0.164550933661114E+02
0.170002780320229E+02
0.175852751285616E+02
0.182055775360774E+02
0.188564826186207E+02
0.195330941158512E+02
0.202303112495262E+02
0.209428078492641E+02
0.144950024959638E+02
0.145271614972524E+02
0.146231997985666E+02
0.147822400824084E+02
0.150028372514663E+02
0.152830142043487E+02
0.156203074540379E+02
0.160118191067952E+02
0.164542712186101E+02
0.169440583811374E+02
0.174772945785924E+02
0.180498508954341E+02
0.186573815122117E+02
0.192953365523372E+02
0.199589616652052E+02
0.206432856637494E+02
0.213430989760153E+02
0.150900419563583E+02
0.151213228400954E+02
0.152147445537072E+02
0.153694790521607E+02
0.155841612603558E+02
0.158569217538246E+02
0.161854283331131E+02
0.165669332636678E+02
0.169983224860379E+02
0.174761629462337E+02
0.179967443727638E+02
0.185561123319377E+02
0.191500902011230E+02
0.197742887648672E+02
0.204241033964271E+02
0.210947001557367E+02
0.217809935179729E+02
0.157264589629071E+02
0.157568291966966E+02
0.158475371344982E+02
0.159978049631231E+02
0.162063492181128E+02
0.164714103463820E+02
0.167907902052563E+02
0.171618945244932E+02
0.175817769247960E+02
0.180471809418655E+02
0.185545766691843E+02
0.191001891047378E+02
0.196800160456659E+02
0.202898343798518E+02
0.209251948158308E+02
0.215814063962805E+02
0.222535134644988E+02
0.163989180379753E+02
0.164283574713712E+02
0.165162913094814E+02
0.166619921234937E+02
0.168642583411592E+02
0.171214407232386E+02
0.174314758275642E+02
0.177919237381507E+02
0.182000069373551E+02
0.186526470652978E+02
0.191464964629379E+02
0.196779618350253E+02
0.202432180796634E+02
0.208382112770661E+02
0.214586509581544E+02
0.220999930135824E+02
0.227574158693466E+02
0.171019040489804E+02
0.171304041517342E+02
0.172155381717785E+02
0.173566284908032E+02
0.175525545326992E+02
0.178017762337243E+02
0.181023635747521E+02
0.184520296959942E+02
0.188481647479888E+02
0.192878675095597E+02
0.197679719444319E+02
0.202850662772396E+02
0.208355028336919E+02
0.214153977783491E+02
0.220206209491151E+02
0.226467771652539E+02
0.232891815939686E+02
0.178297329293309E+02
0.178572958494814E+02
0.179396361437782E+02
0.180761247975700E+02
0.182657203074511E+02
0.185069892654084E+02
0.187981321152135E+02
0.191370118332406E+02
0.195211829509023E+02
0.199479182233677E+02
0.204142303799507E+02
0.209168867716262E+02
0.214524153511143E+02
0.220171012552310E+02
0.226069742652094E+02
0.232177885386214E+02
0.238449971594501E+02
0.185765470276910E+02
0.186031845388680E+02
0.186827658856131E+02
0.188147089176118E+02
0.189980484150957E+02
0.192314539394655E+02
0.195132520120255E+02
0.198414505911026E+02
0.202137635128405E+02
0.206276324587511E+02
0.210802441345964E+02
0.215685406983718E+02
0.220892220539973E+02
0.226387394104691E+02
0.232132804559698E+02
0.238087475577131E+02
0.244207314985044E+02
0.193362985238028E+02
0.193620309268650E+02
0.194389135288059E+02
0.195664088738678E+02
0.197436245355368E+02
0.199693284102785E+02
0.202419675485389E+02
0.205596886958436E+02
0.209203584399996E+02
0.213215807681448E+02
0.217607099507331E+02
0.222348569981790E+02
0.227408884767741E+02
0.232754172062612E+02
0.238347852587772E+02
0.244150406871013E+02
0.250119104606952E+02
0.117333461806106E+02
0.117699288673217E+02
0.118791455010203E+02
0.120598594045207E+02
0.123102046604428E+02
0.126276386722916E+02
0.130090096978374E+02
0.134506344773151E+02
0.139483803967184E+02
0.144977464096438E+02
0.150939372060713E+02
0.157319258423992E+02
0.164065011798271E+02
0.171122979358823E+02
0.178438088330207E+02
0.185953801099879E+02
0.193611934175352E+02
0.117698534369734E+02
0.118063738351747E+02
0.119154049431936E+02
0.120958138531461E+02
0.123457407593621E+02
0.126626512704175E+02
0.130434036175462E+02
0.134843259028312E+02
0.139812978510231E+02
0.145298313127365E+02
0.151251440305327E+02
0.157622219024674E+02
0.164358661063003E+02
0.171407229002689E+02
0.178712955901321E+02
0.186219399287531E+02
0.193868459657505E+02
0.118789877735179E+02
0.119153225827796E+02
0.120238009106671E+02
0.122033010615243E+02
0.124519814103118E+02
0.127673319746109E+02
0.131462406573818E+02
0.135850693658986E+02
0.140797345407155E+02
0.146257864145980E+02
0.152184815816105E+02
0.158528441711486E+02
0.165237120379701E+02
0.172257658171562E+02
0.179535403508960E+02
0.187014197551269E+02
0.194636191315121E+02
0.120595978547428E+02
0.120956275512296E+02
0.122031970772635E+02
0.123812031098177E+02
0.126278338171652E+02
0.129406192208559E+02
0.133164958594259E+02
0.137518810605851E+02
0.142427514701140E+02
0.147847202753585E+02
0.153731078157837E+02
0.160030009738169E+02
0.166692978353317E+02
0.173667355227758E+02
0.180899007360416E+02
0.188332242720927E+02
0.195909625092275E+02
0.123098004861331E+02
0.123454116666906E+02
0.124517345744330E+02
0.126276909631906E+02
0.128715096705121E+02
0.131807753334127E+02
0.135524909036074E+02
0.139831494066265E+02
0.144688097484757E+02
0.150051711680559E+02
0.155876411804668E+02
0.162113925383534E+02
0.168714058072462E+02
0.175624955316117E+02
0.182793195652777E+02
0.190163728415163E+02
0.197679685421870E+02
0.126270312850780E+02
0.126621187631535E+02
0.127668816766313E+02
0.129402729515649E+02
0.131805719873061E+02
0.134854313347718E+02
0.138519365522512E+02
0.142766748532035E+02
0.147558075417733E+02
0.152851410324341E+02
0.158601914876943E+02
0.164762387667834E+02
0.171283664133306E+02
0.178114857502325E+02
0.185203437034217E+02
0.192495156354504E+02
0.199933861158331E+02
0.130081101225112E+02
0.130425787000936E+02
0.131454979563061E+02
0.133158573505062E+02
0.135519955501492E+02
0.138516447342569E+02
0.142119873490396E+02
0.146297211278638E+02
0.151011275947133E+02
0.156221390782143E+02
0.161883994900328E+02
0.167953147537611E+02
0.174380897664161E+02
0.181117500677271E+02
0.188111478953904E+02
0.195309539142635E+02
0.202656375090633E+02
0.134493164082946E+02
0.134830822689775E+02
0.135839080645539E+02
0.137508243207853E+02
0.139822363416335E+02
0.142759658610359E+02
0.146293043362325E+02
0.150390739150162E+02
0.155016915449326E+02
0.160132315085857E+02
0.165694818841124E+02
0.171659910326583E+02
0.177981011673143E+02
0.184609672986135E+02
0.191495612984337E+02
0.198586623788198E+02
0.205828368341431E+02
0.139464686442055E+02
0.139794603360660E+02
0.140779796549621E+02
0.142411018386077E+02
0.144673047613017E+02
0.147545077213408E+02
0.151001209935765E+02
0.155011024165454E+02
0.159540167502847E+02
0.164550933661114E+02
0.170002780320229E+02
0.175852751285616E+02
0.182055775360774E+02
0.188564826186207E+02
0.195330941158512E+02
0.202303112495262E+02
0.209428078492641E+02
0.144950024959638E+02
0.145271614972524E+02
0.146231997985666E+02
0.147822400824084E+02
0.150028372514663E+02
0.152830142043487E+02
0.156203074540379E+02
0.160118191067952E+02
0.164542712186101E+02
0.169440583811374E+02
0.174772945785924E+02
0.180498508954341E+02
0.186573815122117E+02
0.192953365523372E+02
0.199589616652052E+02
0.206432856637494E+02
0.213430989760153E+02
0.150900419563583E+02
0.151213228400954E+02
0.152147445537072E+02
0.153694790521607E+02
0.155841612603558E+02
0.158569217538246E+02
0.161854283331131E+02
0.165669332636678E+02
0.169983224860379E+02
0.174761629462337E+02
0.179967443727638E+02
0.185561123319377E+02
0.191500902011230E+02
0.197742887648672E+02
0.204241033964271E+02
0.210947001557367E+02
0.217809935179729E+02
0.157264589629071E+02
0.157568291966966E+02
0.158475371344982E+02
0.159978049631231E+02
0.162063492181128E+02
0.164714103463820E+02
0.167907902052563E+02
0.171618945244932E+02
0.175817769247960E+02
0.180471809418655E+02
0.185545766691843E+02
0.191001891047378E+02
0.196800160456659E+02
0.202898343798518E+02
0.209251948158308E+02
0.215814063962805E+02
0.222535134644988E+02
0.163989180379753E+02
0.164283574713712E+02
0.165162913094814E+02
0.166619921234937E+02
0.168642583411592E+02
0.171214407232386E+02
0.174314758275642E+02
0.177919237381507E+02
0.182000069373551E+02
0.186526470652978E+02
0.191464964629379E+02
0.196779618350253E+02
0.202432180796634E+02
0.208382112770661E+02
0.214586509581544E+02
0.220999930135824E+02
0.227574158693466E+02
0.171019040489804E+02
0.171304041517342E+02
0.172155381717785E+02
0.173566284908032E+02
0.175525545326992E+02
0.178017762337243E+02
0.181023635747521E+02
0.184520296959942E+02
0.188481647479888E+02
0.192878675095597E+02
0.197679719444319E+02
0.202850662772396E+02
0.208355028336919E+02
0.214153977783491E+02
0.220206209491151E+02
0.226467771652539E+02
0.232891815939686E+02
0.178297329293309E+02
0.178572958494814E+02
0.179396361437782E+02
0.180761247975700E+02
0.182657203074511E+02
0.185069892654084E+02
0.187981321152135E+02
0.191370118332406E+02
0.195211829509023E+02
0.199479182233677E+02
0.204142303799507E+02
0.209168867716262E+02
0.214524153511143E+02
0.220171012552310E+02
0.226069742652094E+02
0.232177885386214E+02
0.238449971594501E+02
0.185765470276910E+02
0.186031845388680E+02
0.186827658856131E+02
0.188147089176118E+02
0.189980484150957E+02
0.192314539394655E+02
0.195132520120255E+02
0.198414505911026E+02
0.202137635128405E+02
0.206276324587511E+02
0.210802441345964E+02
0.215685406983718E+02
0.220892220539973E+02
0.226387394104691E+02
0.232132804559698E+02
0.238087475577131E+02
0.244207314985044E+02
0.193362985238028E+02
0.193620309268650E+02
0.194389135288059E+02
0.195664088738678E+02
0.197436245355368E+02
0.199693284102785E+02
0.202419675485389E+02
0.205596886958436E+02
0.209203584399996E+02
0.213215807681448E+02
0.217607099507331E+02
0.222348569981790E+02
0.227408884767741E+02
0.232754172062612E+02
0.238347852587772E+02
0.244150406871013E+02
0.250119104606952E+02
0.117333461806106E+02
0.117699288673217E+02
0.118791455010203E+02
0.120598594045207E+02
0.123102046604428E+02
0.126276386722916E+02
0.130090096978374E+02
0.134506344773151E+02
0.139483803967184E+02
0.144977464096438E+02
0.150939372060713E+02
0.157319258423992E+02
0.164065011798271E+02
0.171122979358823E+02
0.178438088330207E+02
0.185953801099879E+02
0.193611934175352E+02
0.117698534369734E+02
0.118063738351747E+02
0.119154049431936E+02
0.120958138531461E+02
0.123457407593621E+02
0.126626512704175E+02
0.130434036175462E+02
0.134843259028312E+02
0.139812978510231E+02
0.145298313127365E+02
0.151251440305327E+02
0.157622219024674E+02
0.164358661063003E+02
0.171407229002689E+02
0.178712955901321E+02
0.186219399287531E+02
0.193868459657505E+02
0.118789877735179E+02
0.119153225827796E+02
0.120238009106671E+02
0.122033010615243E+02
0.124519814103118E+02
0.127673319746109E+02
0.131462406573818E+02
0.135850693658986E+02
0.140797345407155E+02
0.146257864145980E+02
0.152184815816105E+02
0.158528441711486E+02
0.165237120379701E+02
0.172257658171562E+02
0.179535403508960E+02
0.187014197551269E+02
0.194636191315121E+02
0.120595978547428E+02
0.120956275512296E+02
0.122031970772635E+02
0.123812031098177E+02
0.126278338171652E+02
0.129406192208559E+02
0.133164958594259E+02
0.137518810605851E+02
0.142427514701140E+02
0.147847202753585E+02
0.153731078157837E+02
0.160030009738169E+02
0.166692978353317E+02
0.173667355227758E+02
0.180899007360416E+02
0.188332242720927E+02
0.195909625092275E+02
0.123098004861331E+02
0.123454116666906E+02
0.124517345744330E+02
0.126276909631906E+02
0.128715096705121E+02
0.131807753334127E+02
0.135524909036074E+02
0.139831494066265E+02
0.144688097484757E+02
0.150051711680559E+02
0.155876411804668E+02
0.162113925383534E+02
0.168714058072462E+02
0.175624955316117E+02
0.182793195652777E+02
0.190163728415163E+02
0.197679685421870E+02
0.126270312850780E+02
0.126621187631535E+02
0.127668816766313E+02
0.129402729515649E+02
0.131805719873061E+02
0.134854313347718E+02
0.138519365522512E+02
0.142766748532035E+02
0.147558075417733E+02
0.152851410324341E+02
0.158601914876943E+02
0.164762387667834E+02
0.171283664133306E+02
0.178114857502325E+02
0.185203437034217E+02
0.192495156354504E+02
0.199933861158331E+02
0.130081101225112E+02
0.130425787000936E+02
0.131454979563061E+02
0.133158573505062E+02
0.135519955501492E+02
0.138516447342569E+02
0.142119873490396E+02
0.146297211278638E+02
0.151011275947133E+02
0.156221390782143E+02
0.161883994900328E+02
0.167953147537611E+02
0.174380897664161E+02
0.181117500677271E+02
0.188111478953904E+02
0.195309539142635E+02
0.202656375090633E+02
0.134493164082946E+02
0.134830822689775E+02
0.135839080645539E+02
0.137508243207853E+02
0.139822363416335E+02
0.142759658610359E+02
0.146293043362325E+02
0.150390739150162E+02
0.155016915449326E+02
0.160132315085857E+02
0.165694818841124E+02
0.171659910326583E+02
0.177981011673143E+02
0.184609672986135E+02
0.191495612984337E+02
0.198586623788198E+02
0.205828368341431E+02
0.139464686442055E+02
0.139794603360660E+02
0.140779796549621E+02
0.142411018386077E+02
0.144673047613017E+02
0.147545077213408E+02
0.151001209935765E+02
0.155011024165454E+02
0.159540167502847E+02
0.164550933661114E+02
0.170002780320229E+02
0.175852751285616E+02
0.182055775360774E+02
0.188564826186207E+02
0.195330941158512E+02
0.202303112495262E+02
0.209428078492641E+02
0.144950024959638E+02
0.145271614972524E+02
0.146231997985666E+02
0.147822400824084E+02
0.150028372514663E+02
0.152830142043487E+02
0.156203074540379E+02
0.160118191067952E+02
0.164542712186101E+02
0.169440583811374E+02
0.174772945785924E+02
0.180498508954341E+02
0.186573815122117E+02
0.192953365523372E+02
0.199589616652052E+02
0.206432856637494E+02
0.213430989760153E+02
0.150900419563583E+02
0.151213228400954E+02
0.152147445537072E+02
0.153694790521607E+02
0.155841612603558E+02
0.158569217538246E+02
0.161854283331131E+02
0.165669332636678E+02
0.169983224860379E+02
0.174761629462337E+02
0.179967443727638E+02
0.185561123319377E+02
0.191500902011230E+02
0.197742887648672E+02
0.204241033964271E+02
0.210947001557367E+02
0.217809935179729E+02
0.157264589629071E+02
0.157568291966966E+02
0.158475371344982E+02
0.159978049631231E+02
0.162063492181128E+02
0.164714103463820E+02
0.167907902052563E+02
0.171618945244932E+02
0.175817769247960E+02
0.180471809418655E+02
0.185545766691843E+02
0.191001891047378E+02
0.196800160456659E+02
0.202898343798518E+02
0.209251948158308E+02
0.215814063962805E+02
0.222535134644988E+02
0.163989180379753E+02
0.164283574713712E+02
0.165162913094814E+02
0.166619921234937E+02
0.168642583411592E+02
0.171214407232386E+02
0.174314758275642E+02
0.177919237381507E+02
0.182000069373551E+02
0.186526470652978E+02
0.191464964629379E+02
0.196779618350253E+02
0.202432180796634E+02
0.208382112770661E+02
0.214586509581544E+02
0.220999930135824E+02
0.227574158693466E+02
0.171019040489804E+02
0.171304041517342E+02
0.172155381717785E+02
0.173566284908032E+02
0.175525545326992E+02
0.178017762337243E+02
0.181023635747521E+02
0.184520296959942E+02
0.188481647479888E+02
0.192878675095597E+02
0.197679719444319E+02
0.202850662772396E+02
0.208355028336919E+02
0.214153977783491E+02
0.220206209491151E+02
0.226467771652539E+02
0.232891815939686E+02
0.178297329293309E+02
0.178572958494814E+02
0.179396361437782E+02
0.180761247975700E+02
0.182657203074511E+02
0.185069892654084E+02
0.187981321152135E+02
0.191370118332406E+02
0.195211829509023E+02
0.199479182233677E+02
0.204142303799507E+02
0.209168867716262E+02
0.214524153511143E+02
0.220171012552310E+02
0.226069742652094E+02
0.232177885386214E+02
0.238449971594501E+02
0.185765470276910E+02
0.186031845388680E+02
0.186827658856131E+02
0.188147089176118E+02
0.189980484150957E+02
0.192314539394655E+02
0.195132520120255E+02
0.198414505911026E+02
0.202137635128405E+02
0.206276324587511E+02
0.210802441345964E+02
0.215685406983718E+02
0.220892220539973E+02
0.226387394104691E+02
0.232132804559698E+02
0.238087475577131E+02
0.244207314985044E+02
0.193362985238028E+02
0.193620309268650E+02
0.194389135288059E+02
0.195664088738678E+02
0.197436245355368E+02
0.199693284102785E+02
0.202419675485389E+02
0.205596886958436E+02
0.209203584399996E+02
0.213215807681448E+02
0.217607099507331E+02
0.222348569981790E+02
0.227408884767741E+02
0.232754172062612E+02
0.238347852587772E+02
0.244150406871013E+02
0.250119104606952E+02
</DataArray>
</PointData>
</Piece>
</RectilinearGrid>
</VTKFile>
