<?xml version="1.0"?>
<VTKFile type="RectilinearGrid" version="0.1" byte_order="LittleEndian">
<RectilinearGrid WholeExtent="0   63    0   63    0    3">
<Piece Extent="47   63   47   63    0    3">
<Coordinates>
<DataArray Name="x" type="Float32" format="ascii">
0.470000000000000E+01
0.480000000000000E+01
0.490000000000000E+01
0.500000000000000E+01
0.510000000000000E+01
0.520000000000000E+01
0.530000000000000E+01
0.540000000000000E+01
0.550000000000000E+01
0.560000000000000E+01
0.570000000000000E+01
0.580000000000000E+01
0.590000000000000E+01
0.600000000000000E+01
0.610000000000000E+01
0.620000000000000E+01
0.630000000000000E+01
</DataArray>
<DataArray Name="y" type="Float32" format="ascii">
0.470000000000000E+01
0.480000000000000E+01
0.490000000000000E+01
0.500000000000000E+01
0.510000000000000E+01
0.520000000000000E+01
0.530000000000000E+01
0.540000000000000E+01
0.550000000000000E+01
0.560000000000000E+01
0.570000000000000E+01
0.580000000000000E+01
0.590000000000000E+01
0.600000000000000E+01
0.610000000000000E+01
0.620000000000000E+01
0.630000000000000E+01
</DataArray>
<DataArray Name="z" type="Float32" format="ascii">
0.000000000000000E+00
0.100000000000000E+00
0.200000000000000E+00
0.300000000000000E+00
</DataArray>
</Coordinates>
<PointData Scalars="c">
<DataArray type="Float32" Name="c" format="ascii">
0.254691511027543E+02
0.259130422700246E+02
0.263565524789601E+02
0.267954840333520E+02
0.272256044631212E+02
0.276426897285725E+02
0.280425704264199E+02
0.284211804143505E+02
0.287746071000148E+02
0.290991424828629E+02
0.293913339035429E+02
0.296480333553722E+02
0.298664441540427E+02
0.300441637515956E+02
0.301792215225207E+02
0.302701104443931E+02
0.303158117403439E+02
0.259010989491920E+02
0.263372853091268E+02
0.267731898355640E+02
0.272046835750448E+02
0.276276001225400E+02
0.280377783595547E+02
0.284311082525725E+02
0.288035791240694E+02
0.291513296368751E+02
0.294706985750581E+02
0.297582753710251E+02
0.300109492287979E+02
0.302259556357457E+02
0.304009190456464E+02
0.305338905585104E+02
0.306233795178175E+02
0.306683780912678E+02
0.263314464345131E+02
0.267600426070322E+02
0.271884530777574E+02
0.276126166900495E+02
0.280284322504322E+02
0.284318008021194E+02
0.288186710149395E+02
0.291850870996960E+02
0.295272384830388E+02
0.298415103212019E+02
0.301245337977115E+02
0.303732350509173E+02
0.305848815201467E+02
0.307571244905818E+02
0.308880366602036E+02
0.309761436479887E+02
0.310204485084968E+02
0.267559696897718E+02
0.271771610650146E+02
0.275982590552192E+02
0.280152687186831E+02
0.284241526055651E+02
0.288208725730078E+02
0.292014347697559E+02
0.295619371945018E+02
0.298986190597498E+02
0.302079110351950E+02
0.304864853115957E+02
0.307313043273349E+02
0.309396669434211E+02
0.311092508446434E+02
0.312381499884836E+02
0.313249060197928E+02
0.313685327156497E+02
0.271704274013008E+02
0.275844673467569E+02
0.279985016766224E+02
0.284085994685196E+02
0.288107849533015E+02
0.292010788825596E+02
0.295755431154074E+02
0.299303278253505E+02
0.302617205551953E+02
0.305661961901026E+02
0.308404667861126E+02
0.310815300931390E+02
0.312867155555628E+02
0.314537265661428E+02
0.315806777934407E+02
0.316661264998765E+02
0.317090969143333E+02
0.275706063415324E+02
0.279778129041686E+02
0.283850964309032E+02
0.287885872363799E+02
0.291843685984275E+02
0.295685176933282E+02
0.299371497965357E+02
0.302864651466217E+02
0.306127976970137E+02
0.309126648222042E+02
0.311828169125802E+02
0.314202856941224E+02
0.316224300539062E+02
0.317869781454909E+02
0.319120645933154E+02
0.319962617125870E+02
0.320386038082946E+02
0.279523696272987E+02
0.283531217887709E+02
0.287540277497302E+02
0.291512757242678E+02
0.295410048614323E+02
0.299193457681336E+02
0.302824643398441E+02
0.306266082942378E+02
0.309481556293663E+02
0.312436640700925E+02
0.315099204342034E+02
0.317439887521405E+02
0.319432559194700E+02
0.321054736549038E+02
0.322287955821973E+02
0.323118083520238E+02
0.323535558673546E+02
0.283117070200234E+02
0.287064405593305E+02
0.291013985184928E+02
0.294928231535907E+02
0.298769057999861E+02
0.302498270070889E+02
0.306078000192980E+02
0.309471169959822E+02
0.312641971895609E+02
0.315556361428788E+02
0.318182548350012E+02
0.320491476074595E+02
0.322457276486237E+02
0.324057688080502E+02
0.325274425585980E+02
0.326093490222351E+02
0.326505411231159E+02
0.286447864191102E+02
0.290339894327738E+02
0.294234808789817E+02
0.298095527174162E+02
0.301884443123827E+02
0.305563822078215E+02
0.309096232828031E+02
0.312445006784462E+02
0.315574717131715E+02
0.318451668453680E+02
0.321044386107002E+02
0.323324093645433E+02
0.325265166061042E+02
0.326845546553828E+02
0.328047115004599E+02
0.328855997310175E+02
0.329262806218574E+02
0.289480055553431E+02
0.293322136807745E+02
0.297167673221778E+02
0.300980033656683E+02
0.304722046148139E+02
0.308356392381734E+02
0.311846036275111E+02
0.315154680560232E+02
0.318247243517090E+02
0.321090346432143E+02
0.323652801038384E+02
0.325906085229760E+02
0.327824794807102E+02
0.329387058962480E+02
0.330574907675519E+02
0.331374580181922E+02
0.331776765154535E+02
0.292180427752405E+02
0.295978341587184E+02
0.299780209540708E+02
0.303549798028763E+02
0.307250319692535E+02
0.310844824957928E+02
0.314296627962324E+02
0.317569760729051E+02
0.320629447726346E+02
0.323442591369977E+02
0.325978257714262E+02
0.328208150614801E+02
0.330107062114039E+02
0.331653286753754E+02
0.332828987988004E+02
0.333620505858857E+02
0.334018596578455E+02
0.294519057291239E+02
0.298278957759835E+02
0.302043237400749E+02
0.305776005011390E+02
0.309440804621713E+02
0.313001004528400E+02
0.316420220916082E+02
0.319662769935411E+02
0.322694140363173E+02
0.325481477392512E+02
0.327994066788515E+02
0.330203807685493E+02
0.332085661772889E+02
0.333618066572451E+02
0.334783300981086E+02
0.335567792244286E+02
0.335962355007089E+02
0.296469767425353E+02
0.300198126839197E+02
0.303931215016028E+02
0.307633424994789E+02
0.311268576033023E+02
0.314800300535019E+02
0.318192465745849E+02
0.321409624072982E+02
0.324417484151751E+02
0.327183393194188E+02
0.329676819849390E+02
0.331869825846705E+02
0.333737514165887E+02
0.335258441436376E+02
0.336414982741460E+02
0.337193637994867E+02
0.337585270540081E+02
0.298010536676563E+02
0.301714089755597E+02
0.305422644566059E+02
0.309100817795717E+02
0.312712645330236E+02
0.316221967518052E+02
0.319592849339625E+02
0.322790029336798E+02
0.325779389411870E+02
0.328528436029678E+02
0.331006782045748E+02
0.333186617428270E+02
0.335043156616397E+02
0.336555050217003E+02
0.337704749217167E+02
0.338478810882368E+02
0.338868136993552E+02
0.299123850808385E+02
0.302809537611750E+02
0.306500421665464E+02
0.310161280790219E+02
0.313756306985586E+02
0.317249490493158E+02
0.320605038862650E+02
0.323787824872564E+02
0.326763855410481E+02
0.329500751842040E+02
0.331968231088224E+02
0.334138575676470E+02
0.335987080507106E+02
0.337492464037552E+02
0.338637232062789E+02
0.339407983264065E+02
0.339795647181216E+02
0.299796988134517E+02
0.303471896054519E+02
0.307152118744415E+02
0.310802531259834E+02
0.314387419822491E+02
0.317870865156765E+02
0.321217160888258E+02
0.324391260853480E+02
0.327359247423129E+02
0.330088811365533E+02
0.332549732467923E+02
0.334714349179794E+02
0.336558005019393E+02
0.338059459445994E+02
0.339201251377363E+02
0.339970004525606E+02
0.340356665208212E+02
0.300022229720572E+02
0.303693534813296E+02
0.307370193882943E+02
0.311017114489490E+02
0.314598614354529E+02
0.318078804454745E+02
0.321422007197002E+02
0.324593203523410E+02
0.327558501047969E+02
0.330285613750541E+02
0.332744342445196E+02
0.334907044286789E+02
0.336749079056635E+02
0.338249219930083E+02
0.339390016905672E+02
0.340158102069491E+02
0.340544427352053E+02
0.254691511027543E+02
0.259130422700246E+02
0.263565524789601E+02
0.267954840333520E+02
0.272256044631212E+02
0.276426897285725E+02
0.280425704264199E+02
0.284211804143505E+02
0.287746071000148E+02
0.290991424828629E+02
0.293913339035429E+02
0.296480333553722E+02
0.298664441540427E+02
0.300441637515956E+02
0.301792215225207E+02
0.302701104443931E+02
0.303158117403439E+02
0.259010989491920E+02
0.263372853091268E+02
0.267731898355640E+02
0.272046835750448E+02
0.276276001225400E+02
0.280377783595547E+02
0.284311082525725E+02
0.288035791240694E+02
0.291513296368751E+02
0.294706985750581E+02
0.297582753710251E+02
0.300109492287979E+02
0.302259556357457E+02
0.304009190456464E+02
0.305338905585104E+02
0.306233795178175E+02
0.306683780912678E+02
0.263314464345131E+02
0.267600426070322E+02
0.271884530777574E+02
0.276126166900495E+02
0.280284322504322E+02
0.284318008021194E+02
0.288186710149395E+02
0.291850870996960E+02
0.295272384830388E+02
0.298415103212019E+02
0.301245337977115E+02
0.303732350509173E+02
0.305848815201467E+02
0.307571244905818E+02
0.308880366602036E+02
0.309761436479887E+02
0.310204485084968E+02
0.267559696897718E+02
0.271771610650146E+02
0.275982590552192E+02
0.280152687186831E+02
0.284241526055651E+02
0.288208725730078E+02
0.292014347697559E+02
0.295619371945018E+02
0.298986190597498E+02
0.302079110351950E+02
0.304864853115957E+02
0.307313043273349E+02
0.309396669434211E+02
0.311092508446434E+02
0.312381499884836E+02
0.313249060197928E+02
0.313685327156497E+02
0.271704274013008E+02
0.275844673467569E+02
0.279985016766224E+02
0.284085994685196E+02
0.288107849533015E+02
0.292010788825596E+02
0.295755431154074E+02
0.299303278253505E+02
0.302617205551953E+02
0.305661961901026E+02
0.308404667861126E+02
0.310815300931390E+02
0.312867155555628E+02
0.314537265661428E+02
0.315806777934407E+02
0.316661264998765E+02
0.317090969143333E+02
0.275706063415324E+02
0.279778129041686E+02
0.283850964309032E+02
0.287885872363799E+02
0.291843685984275E+02
0.295685176933282E+02
0.299371497965357E+02
0.302864651466217E+02
0.306127976970137E+02
0.309126648222042E+02
0.311828169125802E+02
0.314202856941224E+02
0.316224300539062E+02
0.317869781454909E+02
0.319120645933154E+02
0.319962617125870E+02
0.320386038082946E+02
0.279523696272987E+02
0.283531217887709E+02
0.287540277497302E+02
0.291512757242678E+02
0.295410048614323E+02
0.299193457681336E+02
0.302824643398441E+02
0.306266082942378E+02
0.309481556293663E+02
0.312436640700925E+02
0.315099204342034E+02
0.317439887521405E+02
0.319432559194700E+02
0.321054736549038E+02
0.322287955821973E+02
0.323118083520238E+02
0.323535558673546E+02
0.283117070200234E+02
0.287064405593305E+02
0.291013985184928E+02
0.294928231535907E+02
0.298769057999861E+02
0.302498270070889E+02
0.306078000192980E+02
0.309471169959822E+02
0.312641971895609E+02
0.315556361428788E+02
0.318182548350012E+02
0.320491476074595E+02
0.322457276486237E+02
0.324057688080502E+02
0.325274425585980E+02
0.326093490222351E+02
0.326505411231159E+02
0.286447864191102E+02
0.290339894327738E+02
0.294234808789817E+02
0.298095527174162E+02
0.301884443123827E+02
0.305563822078215E+02
0.309096232828031E+02
0.312445006784462E+02
0.315574717131715E+02
0.318451668453680E+02
0.321044386107002E+02
0.323324093645433E+02
0.325265166061042E+02
0.326845546553828E+02
0.328047115004599E+02
0.328855997310175E+02
0.329262806218574E+02
0.289480055553431E+02
0.293322136807745E+02
0.297167673221778E+02
0.300980033656683E+02
0.304722046148139E+02
0.308356392381734E+02
0.311846036275111E+02
0.315154680560232E+02
0.318247243517090E+02
0.321090346432143E+02
0.323652801038384E+02
0.325906085229760E+02
0.327824794807102E+02
0.329387058962480E+02
0.330574907675519E+02
0.331374580181922E+02
0.331776765154535E+02
0.292180427752405E+02
0.295978341587184E+02
0.299780209540708E+02
0.303549798028763E+02
0.307250319692535E+02
0.310844824957928E+02
0.314296627962324E+02
0.317569760729051E+02
0.320629447726346E+02
0.323442591369977E+02
0.325978257714262E+02
0.328208150614801E+02
0.330107062114039E+02
0.331653286753754E+02
0.332828987988004E+02
0.333620505858857E+02
0.334018596578455E+02
0.294519057291239E+02
0.298278957759835E+02
0.302043237400749E+02
0.305776005011390E+02
0.309440804621713E+02
0.313001004528400E+02
0.316420220916082E+02
0.319662769935411E+02
0.322694140363173E+02
0.325481477392512E+02
0.327994066788515E+02
0.330203807685493E+02
0.332085661772889E+02
0.333618066572451E+02
0.334783300981086E+02
0.335567792244286E+02
0.335962355007089E+02
0.296469767425353E+02
0.300198126839197E+02
0.303931215016028E+02
0.307633424994789E+02
0.311268576033023E+02
0.314800300535019E+02
0.318192465745849E+02
0.321409624072982E+02
0.324417484151751E+02
0.327183393194188E+02
0.329676819849390E+02
0.331869825846705E+02
0.333737514165887E+02
0.335258441436376E+02
0.336414982741460E+02
0.337193637994867E+02
0.337585270540081E+02
0.298010536676563E+02
0.301714089755597E+02
0.305422644566059E+02
0.309100817795717E+02
0.312712645330236E+02
0.316221967518052E+02
0.319592849339625E+02
0.322790029336798E+02
0.325779389411870E+02
0.328528436029678E+02
0.331006782045748E+02
0.333186617428270E+02
0.335043156616397E+02
0.336555050217003E+02
0.337704749217167E+02
0.338478810882368E+02
0.338868136993552E+02
0.299123850808385E+02
0.302809537611750E+02
0.306500421665464E+02
0.310161280790219E+02
0.313756306985586E+02
0.317249490493158E+02
0.320605038862650E+02
0.323787824872564E+02
0.326763855410481E+02
0.329500751842040E+02
0.331968231088224E+02
0.334138575676470E+02
0.335987080507106E+02
0.337492464037552E+02
0.338637232062789E+02
0.339407983264065E+02
0.339795647181216E+02
0.299796988134517E+02
0.303471896054519E+02
0.307152118744415E+02
0.310802531259834E+02
0.314387419822491E+02
0.317870865156765E+02
0.321217160888258E+02
0.324391260853480E+02
0.327359247423129E+02
0.330088811365533E+02
0.332549732467923E+02
0.334714349179794E+02
0.336558005019393E+02
0.338059459445994E+02
0.339201251377363E+02
0.339970004525606E+02
0.340356665208212E+02
0.300022229720572E+02
0.303693534813296E+02
0.307370193882943E+02
0.311017114489490E+02
0.314598614354529E+02
0.318078804454745E+02
0.321422007197002E+02
0.324593203523410E+02
0.327558501047969E+02
0.330285613750541E+02
0.332744342445196E+02
0.334907044286789E+02
0.336749079056635E+02
0.338249219930083E+02
0.339390016905672E+02
0.340158102069491E+02
0.340544427352053E+02
0.254691511027543E+02
0.259130422700246E+02
0.263565524789601E+02
0.267954840333520E+02
0.272256044631212E+02
0.276426897285725E+02
0.280425704264199E+02
0.284211804143505E+02
0.287746071000148E+02
0.290991424828629E+02
0.293913339035429E+02
0.296480333553722E+02
0.298664441540427E+02
0.300441637515956E+02
0.301792215225207E+02
0.302701104443931E+02
0.303158117403439E+02
0.259010989491920E+02
0.263372853091268E+02
0.267731898355640E+02
0.272046835750448E+02
0.276276001225400E+02
0.280377783595547E+02
0.284311082525725E+02
0.288035791240694E+02
0.291513296368751E+02
0.294706985750581E+02
0.297582753710251E+02
0.300109492287979E+02
0.302259556357457E+02
0.304009190456464E+02
0.305338905585104E+02
0.306233795178175E+02
0.306683780912678E+02
0.263314464345131E+02
0.267600426070322E+02
0.271884530777574E+02
0.276126166900495E+02
0.280284322504322E+02
0.284318008021194E+02
0.288186710149395E+02
0.291850870996960E+02
0.295272384830388E+02
0.298415103212019E+02
0.301245337977115E+02
0.303732350509173E+02
0.305848815201467E+02
0.307571244905818E+02
0.308880366602036E+02
0.309761436479887E+02
0.310204485084968E+02
0.267559696897718E+02
0.271771610650146E+02
0.275982590552192E+02
0.280152687186831E+02
0.284241526055651E+02
0.288208725730078E+02
0.292014347697559E+02
0.295619371945018E+02
0.298986190597498E+02
0.302079110351950E+02
0.304864853115957E+02
0.307313043273349E+02
0.309396669434211E+02
0.311092508446434E+02
0.312381499884836E+02
0.313249060197928E+02
0.313685327156497E+02
0.271704274013008E+02
0.275844673467569E+02
0.279985016766224E+02
0.284085994685196E+02
0.288107849533015E+02
0.292010788825596E+02
0.295755431154074E+02
0.299303278253505E+02
0.302617205551953E+02
0.305661961901026E+02
0.308404667861126E+02
0.310815300931390E+02
0.312867155555628E+02
0.314537265661428E+02
0.315806777934407E+02
0.316661264998765E+02
0.317090969143333E+02
0.275706063415324E+02
0.279778129041686E+02
0.283850964309032E+02
0.287885872363799E+02
0.291843685984275E+02
0.295685176933282E+02
0.299371497965357E+02
0.302864651466217E+02
0.306127976970137E+02
0.309126648222042E+02
0.311828169125802E+02
0.314202856941224E+02
0.316224300539062E+02
0.317869781454909E+02
0.319120645933154E+02
0.319962617125870E+02
0.320386038082946E+02
0.279523696272987E+02
0.283531217887709E+02
0.287540277497302E+02
0.291512757242678E+02
0.295410048614323E+02
0.299193457681336E+02
0.302824643398441E+02
0.306266082942378E+02
0.309481556293663E+02
0.312436640700925E+02
0.315099204342034E+02
0.317439887521405E+02
0.319432559194700E+02
0.321054736549038E+02
0.322287955821973E+02
0.323118083520238E+02
0.323535558673546E+02
0.283117070200234E+02
0.287064405593305E+02
0.291013985184928E+02
0.294928231535907E+02
0.298769057999861E+02
0.302498270070889E+02
0.306078000192980E+02
0.309471169959822E+02
0.312641971895609E+02
0.315556361428788E+02
0.318182548350012E+02
0.320491476074595E+02
0.322457276486237E+02
0.324057688080502E+02
0.325274425585980E+02
0.326093490222351E+02
0.326505411231159E+02
0.286447864191102E+02
0.290339894327738E+02
0.294234808789817E+02
0.298095527174162E+02
0.301884443123827E+02
0.305563822078215E+02
0.309096232828031E+02
0.312445006784462E+02
0.315574717131715E+02
0.318451668453680E+02
0.321044386107002E+02
0.323324093645433E+02
0.325265166061042E+02
0.326845546553828E+02
0.328047115004599E+02
0.328855997310175E+02
0.329262806218574E+02
0.289480055553431E+02
0.293322136807745E+02
0.297167673221778E+02
0.300980033656683E+02
0.304722046148139E+02
0.308356392381734E+02
0.311846036275111E+02
0.315154680560232E+02
0.318247243517090E+02
0.321090346432143E+02
0.323652801038384E+02
0.325906085229760E+02
0.327824794807102E+02
0.329387058962480E+02
0.330574907675519E+02
0.331374580181922E+02
0.331776765154535E+02
0.292180427752405E+02
0.295978341587184E+02
0.299780209540708E+02
0.303549798028763E+02
0.307250319692535E+02
0.310844824957928E+02
0.314296627962324E+02
0.317569760729051E+02
0.320629447726346E+02
0.323442591369977E+02
0.325978257714262E+02
0.328208150614801E+02
0.330107062114039E+02
0.331653286753754E+02
0.332828987988004E+02
0.333620505858857E+02
0.334018596578455E+02
0.294519057291239E+02
0.298278957759835E+02
0.302043237400749E+02
0.305776005011390E+02
0.309440804621713E+02
0.313001004528400E+02
0.316420220916082E+02
0.319662769935411E+02
0.322694140363173E+02
0.325481477392512E+02
0.327994066788515E+02
0.330203807685493E+02
0.332085661772889E+02
0.333618066572451E+02
0.334783300981086E+02
0.335567792244286E+02
0.335962355007089E+02
0.296469767425353E+02
0.300198126839197E+02
0.303931215016028E+02
0.307633424994789E+02
0.311268576033023E+02
0.314800300535019E+02
0.318192465745849E+02
0.321409624072982E+02
0.324417484151751E+02
0.327183393194188E+02
0.329676819849390E+02
0.331869825846705E+02
0.333737514165887E+02
0.335258441436376E+02
0.336414982741460E+02
0.337193637994867E+02
0.337585270540081E+02
0.298010536676563E+02
0.301714089755597E+02
0.305422644566059E+02
0.309100817795717E+02
0.312712645330236E+02
0.316221967518052E+02
0.319592849339625E+02
0.322790029336798E+02
0.325779389411870E+02
0.328528436029678E+02
0.331006782045748E+02
0.333186617428270E+02
0.335043156616397E+02
0.336555050217003E+02
0.337704749217167E+02
0.338478810882368E+02
0.338868136993552E+02
0.299123850808385E+02
0.302809537611750E+02
0.306500421665464E+02
0.310161280790219E+02
0.313756306985586E+02
0.317249490493158E+02
0.320605038862650E+02
0.323787824872564E+02
0.326763855410481E+02
0.329500751842040E+02
0.331968231088224E+02
0.334138575676470E+02
0.335987080507106E+02
0.337492464037552E+02
0.338637232062789E+02
0.339407983264065E+02
0.339795647181216E+02
0.299796988134517E+02
0.303471896054519E+02
0.307152118744415E+02
0.310802531259834E+02
0.314387419822491E+02
0.317870865156765E+02
0.321217160888258E+02
0.324391260853480E+02
0.327359247423129E+02
0.330088811365533E+02
0.332549732467923E+02
0.334714349179794E+02
0.336558005019393E+02
0.338059459445994E+02
0.339201251377363E+02
0.339970004525606E+02
0.340356665208212E+02
0.300022229720572E+02
0.303693534813296E+02
0.307370193882943E+02
0.311017114489490E+02
0.314598614354529E+02
0.318078804454745E+02
0.321422007197002E+02
0.324593203523410E+02
0.327558501047969E+02
0.330285613750541E+02
0.332744342445196E+02
0.334907044286789E+02
0.336749079056635E+02
0.338249219930083E+02
0.339390016905672E+02
0.340158102069491E+02
0.340544427352053E+02
0.254691511027543E+02
0.259130422700246E+02
0.263565524789601E+02
0.267954840333520E+02
0.272256044631212E+02
0.276426897285725E+02
0.280425704264199E+02
0.284211804143505E+02
0.287746071000148E+02
0.290991424828629E+02
0.293913339035429E+02
0.296480333553722E+02
0.298664441540427E+02
0.300441637515956E+02
0.301792215225207E+02
0.302701104443931E+02
0.303158117403439E+02
0.259010989491920E+02
0.263372853091268E+02
0.267731898355640E+02
0.272046835750448E+02
0.276276001225400E+02
0.280377783595547E+02
0.284311082525725E+02
0.288035791240694E+02
0.291513296368751E+02
0.294706985750581E+02
0.297582753710251E+02
0.300109492287979E+02
0.302259556357457E+02
0.304009190456464E+02
0.305338905585104E+02
0.306233795178175E+02
0.306683780912678E+02
0.263314464345131E+02
0.267600426070322E+02
0.271884530777574E+02
0.276126166900495E+02
0.280284322504322E+02
0.284318008021194E+02
0.288186710149395E+02
0.291850870996960E+02
0.295272384830388E+02
0.298415103212019E+02
0.301245337977115E+02
0.303732350509173E+02
0.305848815201467E+02
0.307571244905818E+02
0.308880366602036E+02
0.309761436479887E+02
0.310204485084968E+02
0.267559696897718E+02
0.271771610650146E+02
0.275982590552192E+02
0.280152687186831E+02
0.284241526055651E+02
0.288208725730078E+02
0.292014347697559E+02
0.295619371945018E+02
0.298986190597498E+02
0.302079110351950E+02
0.304864853115957E+02
0.307313043273349E+02
0.309396669434211E+02
0.311092508446434E+02
0.312381499884836E+02
0.313249060197928E+02
0.313685327156497E+02
0.271704274013008E+02
0.275844673467569E+02
0.279985016766224E+02
0.284085994685196E+02
0.288107849533015E+02
0.292010788825596E+02
0.295755431154074E+02
0.299303278253505E+02
0.302617205551953E+02
0.305661961901026E+02
0.308404667861126E+02
0.310815300931390E+02
0.312867155555628E+02
0.314537265661428E+02
0.315806777934407E+02
0.316661264998765E+02
0.317090969143333E+02
0.275706063415324E+02
0.279778129041686E+02
0.283850964309032E+02
0.287885872363799E+02
0.291843685984275E+02
0.295685176933282E+02
0.299371497965357E+02
0.302864651466217E+02
0.306127976970137E+02
0.309126648222042E+02
0.311828169125802E+02
0.314202856941224E+02
0.316224300539062E+02
0.317869781454909E+02
0.319120645933154E+02
0.319962617125870E+02
0.320386038082946E+02
0.279523696272987E+02
0.283531217887709E+02
0.287540277497302E+02
0.291512757242678E+02
0.295410048614323E+02
0.299193457681336E+02
0.302824643398441E+02
0.306266082942378E+02
0.309481556293663E+02
0.312436640700925E+02
0.315099204342034E+02
0.317439887521405E+02
0.319432559194700E+02
0.321054736549038E+02
0.322287955821973E+02
0.323118083520238E+02
0.323535558673546E+02
0.283117070200234E+02
0.287064405593305E+02
0.291013985184928E+02
0.294928231535907E+02
0.298769057999861E+02
0.302498270070889E+02
0.306078000192980E+02
0.309471169959822E+02
0.312641971895609E+02
0.315556361428788E+02
0.318182548350012E+02
0.320491476074595E+02
0.322457276486237E+02
0.324057688080502E+02
0.325274425585980E+02
0.326093490222351E+02
0.326505411231159E+02
0.286447864191102E+02
0.290339894327738E+02
0.294234808789817E+02
0.298095527174162E+02
0.301884443123827E+02
0.305563822078215E+02
0.309096232828031E+02
0.312445006784462E+02
0.315574717131715E+02
0.318451668453680E+02
0.321044386107002E+02
0.323324093645433E+02
0.325265166061042E+02
0.326845546553828E+02
0.328047115004599E+02
0.328855997310175E+02
0.329262806218574E+02
0.289480055553431E+02
0.293322136807745E+02
0.297167673221778E+02
0.300980033656683E+02
0.304722046148139E+02
0.308356392381734E+02
0.311846036275111E+02
0.315154680560232E+02
0.318247243517090E+02
0.321090346432143E+02
0.323652801038384E+02
0.325906085229760E+02
0.327824794807102E+02
0.329387058962480E+02
0.330574907675519E+02
0.331374580181922E+02
0.331776765154535E+02
0.292180427752405E+02
0.295978341587184E+02
0.299780209540708E+02
0.303549798028763E+02
0.307250319692535E+02
0.310844824957928E+02
0.314296627962324E+02
0.317569760729051E+02
0.320629447726346E+02
0.323442591369977E+02
0.325978257714262E+02
0.328208150614801E+02
0.330107062114039E+02
0.331653286753754E+02
0.332828987988004E+02
0.333620505858857E+02
0.334018596578455E+02
0.294519057291239E+02
0.298278957759835E+02
0.302043237400749E+02
0.305776005011390E+02
0.309440804621713E+02
0.313001004528400E+02
0.316420220916082E+02
0.319662769935411E+02
0.322694140363173E+02
0.325481477392512E+02
0.327994066788515E+02
0.330203807685493E+02
0.332085661772889E+02
0.333618066572451E+02
0.334783300981086E+02
0.335567792244286E+02
0.335962355007089E+02
0.296469767425353E+02
0.300198126839197E+02
0.303931215016028E+02
0.307633424994789E+02
0.311268576033023E+02
0.314800300535019E+02
0.318192465745849E+02
0.321409624072982E+02
0.324417484151751E+02
0.327183393194188E+02
0.329676819849390E+02
0.331869825846705E+02
0.333737514165887E+02
0.335258441436376E+02
0.336414982741460E+02
0.337193637994867E+02
0.337585270540081E+02
0.298010536676563E+02
0.301714089755597E+02
0.305422644566059E+02
0.309100817795717E+02
0.312712645330236E+02
0.316221967518052E+02
0.319592849339625E+02
0.322790029336798E+02
0.325779389411870E+02
0.328528436029678E+02
0.331006782045748E+02
0.333186617428270E+02
0.335043156616397E+02
0.336555050217003E+02
0.337704749217167E+02
0.338478810882368E+02
0.338868136993552E+02
0.299123850808385E+02
0.302809537611750E+02
0.306500421665464E+02
0.310161280790219E+02
0.313756306985586E+02
0.317249490493158E+02
0.320605038862650E+02
0.323787824872564E+02
0.326763855410481E+02
0.329500751842040E+02
0.331968231088224E+02
0.334138575676470E+02
0.335987080507106E+02
0.337492464037552E+02
0.338637232062789E+02
0.339407983264065E+02
0.339795647181216E+02
0.299796988134517E+02
0.303471896054519E+02
0.307152118744415E+02
0.310802531259834E+02
0.314387419822491E+02
0.317870865156765E+02
0.321217160888258E+02
0.324391260853480E+02
0.327359247423129E+02
0.330088811365533E+02
0.332549732467923E+02
0.334714349179794E+02
0.336558005019393E+02
0.338059459445994E+02
0.339201251377363E+02
0.339970004525606E+02
0.340356665208212E+02
0.300022229720572E+02
0.303693534813296E+02
0.307370193882943E+02
0.311017114489490E+02
0.314598614354529E+02
0.318078804454745E+02
0.321422007197002E+02
0.324593203523410E+02
0.327558501047969E+02
0.330285613750541E+02
0.332744342445196E+02
0.334907044286789E+02
0.336749079056635E+02
0.338249219930083E+02
0.339390016905672E+02
0.340158102069491E+02
0.340544427352053E+02
</DataArray>
</PointData>
</Piece>
</RectilinearGrid>
</VTKFile>
