<?xml version="1.0"?>
<VTKFile type="RectilinearGrid" version="0.1" byte_order="LittleEndian">
<RectilinearGrid WholeExtent="0   63    0   63    0    3">
<Piece Extent="15   31    0   15    0    3">
<Coordinates>
<DataArray Name="x" type="Float32" format="ascii">
0.150000000000000E+01
0.160000000000000E+01
0.170000000000000E+01
0.180000000000000E+01
0.190000000000000E+01
0.200000000000000E+01
0.210000000000000E+01
0.220000000000000E+01
0.230000000000000E+01
0.240000000000000E+01
0.250000000000000E+01
0.260000000000000E+01
0.270000000000000E+01
0.280000000000000E+01
0.290000000000000E+01
0.300000000000000E+01
0.310000000000000E+01
</DataArray>
<DataArray Name="y" type="Float32" format="ascii">
0.000000000000000E+00
0.100000000000000E+00
0.200000000000000E+00
0.300000000000000E+00
0.400000000000000E+00
0.500000000000000E+00
0.600000000000000E+00
0.700000000000000E+00
0.800000000000000E+00
0.900000000000000E+00
0.100000000000000E+01
0.110000000000000E+01
0.120000000000000E+01
0.130000000000000E+01
0.140000000000000E+01
0.150000000000000E+01
</DataArray>
<DataArray Name="z" type="Float32" format="ascii">
0.000000000000000E+00
0.100000000000000E+00
0.200000000000000E+00
0.300000000000000E+00
</DataArray>
</Coordinates>
<PointData Scalars="c">
<DataArray type="Float32" Name="c" format="ascii">
0.281808452378164E+02
0.279499516457595E+02
0.277212401219655E+02
0.274969886652873E+02
0.272794234882567E+02
0.270706982846500E+02
0.268728746185960E+02
0.266879035710487E+02
0.265176087535356E+02
0.263636707747699E+02
0.262276132235899E+02
0.261107902122440E+02
0.260143755075940E+02
0.259393532645396E+02
0.258865103658922E+02
0.258564303659220E+02
0.258494890306043E+02
0.281400937736784E+02
0.279087741774461E+02
0.276796394264795E+02
0.274549717617859E+02
0.272370015850402E+02
0.270278866837667E+02
0.268296925785543E+02
0.266443741286064E+02
0.264737585060247E+02
0.263195296249021E+02
0.261832140891643E+02
0.260661687036369E+02
0.259695695763404E+02
0.258944028267074E+02
0.258414569042980E+02
0.258113165155281E+02
0.258043581516697E+02
0.280726300284152E+02
0.278406047857746E+02
0.276107689867443E+02
0.273854118992240E+02
0.271667708640264E+02
0.269570104498495E+02
0.267582027310902E+02
0.265723088256002E+02
0.264011618035896E+02
0.262464510545589E+02
0.261097081769931E+02
0.259922944360493E+02
0.258953898179554E+02
0.258199836964633E+02
0.257668671165064E+02
0.257366266930621E+02
0.257296401188621E+02
0.279791316534300E+02
0.277461276267822E+02
0.275153194187559E+02
0.272890060441907E+02
0.270694344692323E+02
0.268587786689064E+02
0.266591198086542E+02
0.264724276880330E+02
0.263005435589104E+02
0.261451644061535E+02
0.260078287566403E+02
0.258899040628834E+02
0.257925756909682E+02
0.257168375290548E+02
0.256634842223884E+02
0.256331050334941E+02
0.256260793217327E+02
0.278605366641761E+02
0.276262897500852E+02
0.273942467443731E+02
0.271667190390159E+02
0.269459658230671E+02
0.267341730165347E+02
0.265334333296345E+02
0.263457275870255E+02
0.261729074307838E+02
0.260166794915367E+02
0.258785910949821E+02
0.257600175514204E+02
0.256621510592609E+02
0.255859912398973E+02
0.255323373109142E+02
0.255017818971542E+02
0.254947064745023E+02
0.277180329411451E+02
0.274822905276870E+02
0.272487617485642E+02
0.270197728887860E+02
0.267975978451476E+02
0.265844369112429E+02
0.263823966895447E+02
0.261934712718483E+02
0.260195248035530E+02
0.258622755229168E+02
0.257232813441908E+02
0.256039270338753E+02
0.255054130125737E+02
0.254287458012245E+02
0.253747301198937E+02
0.253439626396912E+02
0.253368273834865E+02
0.275530450077100E+02
0.273155683392554E+02
0.270803165728987E+02
0.268496332647474E+02
0.266258093682080E+02
0.264110618463330E+02
0.262075134131805E+02
0.260171735474473E+02
0.258419208958421E+02
0.256834871593276E+02
0.255434425330873E+02
0.254231827513383E+02
0.253239177712228E+02
0.252466621161712E+02
0.251922268883352E+02
0.251612134518582E+02
0.251540087836074E+02
0.273672182827402E+02
0.271277847120007E+02
0.268905887436280E+02
0.266579934226422E+02
0.264323089498378E+02
0.262157710992496E+02
0.260105207668098E+02
0.258185847956735E+02
0.256418581979324E+02
0.254820878680970E+02
0.253408578614096E+02
0.252195762902292E+02
0.251194638747151E+02
0.250415441700169E+02
0.249866354811803E+02
0.249553444688889E+02
0.249480614437486E+02
0.271624010397425E+02
0.269208061472273E+02
0.266814628667299E+02
0.264467557686426E+02
0.262190163129893E+02
0.260005010515963E+02
0.257933709638358E+02
0.255996720738731E+02
0.254213174716307E+02
0.252600708353360E+02
0.251175315311632E+02
0.249951213455537E+02
0.248940728886475E+02
0.248154196930496E+02
0.247599880209159E+02
0.247283903839877E+02
0.247210207754690E+02
0.269406243326364E+02
0.266966838940969E+02
0.264550102508780E+02
0.262180113342489E+02
0.259880416770072E+02
0.257673803819353E+02
0.255582102263870E+02
0.253625980536031E+02
0.251824765756766E+02
0.250196276887438E+02
0.248756673785682E+02
0.247520322746552E+02
0.246499678937305E+02
0.245705185989956E+02
0.245145192900852E+02
0.244825888299874E+02
0.244751252091266E+02
0.267040801706141E+02
0.264576319536353E+02
0.262134667419345E+02
0.259740174443003E+02
0.257416632638523E+02
0.255187074165383E+02
0.253073559884676E+02
0.251096980855321E+02
0.249276874031377E+02
0.247631253195257E+02
0.246176455936964E+02
0.244927007288133E+02
0.243895500444913E+02
0.243092494867333E+02
0.242526431925171E+02
0.242203568170502E+02
0.242127926252857E+02
0.264550982405983E+02
0.262060036122465E+02
0.259592090689655E+02
0.257171738788113E+02
0.254823032809210E+02
0.252569259401450E+02
0.250432725433364E+02
0.248434556937654E+02
0.246594512345482E+02
0.244930811076417E+02
0.243459978324275E+02
0.242196706676614E+02
0.241153735029140E+02
0.240341745107563E+02
0.239769275788905E+02
0.239442655321034E+02
0.239365951471118E+02
0.261961214854818E+02
0.259442668138674E+02
0.256947300118490E+02
0.254499978396153E+02
0.252125026923199E+02
0.249845997794231E+02
0.247685454485967E+02
0.245664768138065E+02
0.243803928216739E+02
0.242121368658725E+02
0.240633810367364E+02
0.239356120728856E+02
0.238301190638436E+02
0.237479829375034E+02
0.236900677539454E+02
0.236570138174315E+02
0.236492326111876E+02
0.259296808497518E+02
0.256749786835390E+02
0.254226127044056E+02
0.251750980368734E+02
0.249348950947427E+02
0.247043864763217E+02
0.244858550071722E+02
0.242814630932472E+02
0.240932335218355E+02
0.239230318233883E+02
0.237725502846634E+02
0.236432936831288E+02
0.235365667945495E+02
0.234534637103078E+02
0.233948589883462E+02
0.233614006515702E+02
0.233535050399262E+02
0.256583695015767E+02
0.254007595128823E+02
0.251455043849379E+02
0.248951482087012E+02
0.246521800125270E+02
0.244190103671579E+02
0.241979491412069E+02
0.239911845733410E+02
0.238007638019725E+02
0.236285749689326E+02
0.234763309908982E+02
0.233455550717281E+02
0.232375680106512E+02
0.231534773456215E+02
0.230941683581689E+02
0.230602969556523E+02
0.230522844387690E+02
0.253848168324360E+02
0.251242665102332E+02
0.248660898985850E+02
0.246128603799402E+02
0.243670959194854E+02
0.241312353765414E+02
0.239076159694202E+02
0.236984520633250E+02
0.235058154255385E+02
0.233316170678181E+02
0.231775907731542E+02
0.230452783833070E+02
0.229360169051255E+02
0.228509274777709E+02
0.227909062296495E+02
0.227566170430604E+02
0.227484862360776E+02
0.281808452378164E+02
0.279499516457595E+02
0.277212401219655E+02
0.274969886652873E+02
0.272794234882567E+02
0.270706982846500E+02
0.268728746185960E+02
0.266879035710487E+02
0.265176087535356E+02
0.263636707747699E+02
0.262276132235899E+02
0.261107902122440E+02
0.260143755075940E+02
0.259393532645396E+02
0.258865103658922E+02
0.258564303659220E+02
0.258494890306043E+02
0.281400937736784E+02
0.279087741774461E+02
0.276796394264795E+02
0.274549717617859E+02
0.272370015850402E+02
0.270278866837667E+02
0.268296925785543E+02
0.266443741286064E+02
0.264737585060247E+02
0.263195296249021E+02
0.261832140891643E+02
0.260661687036369E+02
0.259695695763404E+02
0.258944028267074E+02
0.258414569042980E+02
0.258113165155281E+02
0.258043581516697E+02
0.280726300284152E+02
0.278406047857746E+02
0.276107689867443E+02
0.273854118992240E+02
0.271667708640264E+02
0.269570104498495E+02
0.267582027310902E+02
0.265723088256002E+02
0.264011618035896E+02
0.262464510545589E+02
0.261097081769931E+02
0.259922944360493E+02
0.258953898179554E+02
0.258199836964633E+02
0.257668671165064E+02
0.257366266930621E+02
0.257296401188621E+02
0.279791316534300E+02
0.277461276267822E+02
0.275153194187559E+02
0.272890060441907E+02
0.270694344692323E+02
0.268587786689064E+02
0.266591198086542E+02
0.264724276880330E+02
0.263005435589104E+02
0.261451644061535E+02
0.260078287566403E+02
0.258899040628834E+02
0.257925756909682E+02
0.257168375290548E+02
0.256634842223884E+02
0.256331050334941E+02
0.256260793217327E+02
0.278605366641761E+02
0.276262897500852E+02
0.273942467443731E+02
0.271667190390159E+02
0.269459658230671E+02
0.267341730165347E+02
0.265334333296345E+02
0.263457275870255E+02
0.261729074307838E+02
0.260166794915367E+02
0.258785910949821E+02
0.257600175514204E+02
0.256621510592609E+02
0.255859912398973E+02
0.255323373109142E+02
0.255017818971542E+02
0.254947064745023E+02
0.277180329411451E+02
0.274822905276870E+02
0.272487617485642E+02
0.270197728887860E+02
0.267975978451476E+02
0.265844369112429E+02
0.263823966895447E+02
0.261934712718483E+02
0.260195248035530E+02
0.258622755229168E+02
0.257232813441908E+02
0.256039270338753E+02
0.255054130125737E+02
0.254287458012245E+02
0.253747301198937E+02
0.253439626396912E+02
0.253368273834865E+02
0.275530450077100E+02
0.273155683392554E+02
0.270803165728987E+02
0.268496332647474E+02
0.266258093682080E+02
0.264110618463330E+02
0.262075134131805E+02
0.260171735474473E+02
0.258419208958421E+02
0.256834871593276E+02
0.255434425330873E+02
0.254231827513383E+02
0.253239177712228E+02
0.252466621161712E+02
0.251922268883352E+02
0.251612134518582E+02
0.251540087836074E+02
0.273672182827402E+02
0.271277847120007E+02
0.268905887436280E+02
0.266579934226422E+02
0.264323089498378E+02
0.262157710992496E+02
0.260105207668098E+02
0.258185847956735E+02
0.256418581979324E+02
0.254820878680970E+02
0.253408578614096E+02
0.252195762902292E+02
0.251194638747151E+02
0.250415441700169E+02
0.249866354811803E+02
0.249553444688889E+02
0.249480614437486E+02
0.271624010397425E+02
0.269208061472273E+02
0.266814628667299E+02
0.264467557686426E+02
0.262190163129893E+02
0.260005010515963E+02
0.257933709638358E+02
0.255996720738731E+02
0.254213174716307E+02
0.252600708353360E+02
0.251175315311632E+02
0.249951213455537E+02
0.248940728886475E+02
0.248154196930496E+02
0.247599880209159E+02
0.247283903839877E+02
0.247210207754690E+02
0.269406243326364E+02
0.266966838940969E+02
0.264550102508780E+02
0.262180113342489E+02
0.259880416770072E+02
0.257673803819353E+02
0.255582102263870E+02
0.253625980536031E+02
0.251824765756766E+02
0.250196276887438E+02
0.248756673785682E+02
0.247520322746552E+02
0.246499678937305E+02
0.245705185989956E+02
0.245145192900852E+02
0.244825888299874E+02
0.244751252091266E+02
0.267040801706141E+02
0.264576319536353E+02
0.262134667419345E+02
0.259740174443003E+02
0.257416632638523E+02
0.255187074165383E+02
0.253073559884676E+02
0.251096980855321E+02
0.249276874031377E+02
0.247631253195257E+02
0.246176455936964E+02
0.244927007288133E+02
0.243895500444913E+02
0.243092494867333E+02
0.242526431925171E+02
0.242203568170502E+02
0.242127926252857E+02
0.264550982405983E+02
0.262060036122465E+02
0.259592090689655E+02
0.257171738788113E+02
0.254823032809210E+02
0.252569259401450E+02
0.250432725433364E+02
0.248434556937654E+02
0.246594512345482E+02
0.244930811076417E+02
0.243459978324275E+02
0.242196706676614E+02
0.241153735029140E+02
0.240341745107563E+02
0.239769275788905E+02
0.239442655321034E+02
0.239365951471118E+02
0.261961214854818E+02
0.259442668138674E+02
0.256947300118490E+02
0.254499978396153E+02
0.252125026923199E+02
0.249845997794231E+02
0.247685454485967E+02
0.245664768138065E+02
0.243803928216739E+02
0.242121368658725E+02
0.240633810367364E+02
0.239356120728856E+02
0.238301190638436E+02
0.237479829375034E+02
0.236900677539454E+02
0.236570138174315E+02
0.236492326111876E+02
0.259296808497518E+02
0.256749786835390E+02
0.254226127044056E+02
0.251750980368734E+02
0.249348950947427E+02
0.247043864763217E+02
0.244858550071722E+02
0.242814630932472E+02
0.240932335218355E+02
0.239230318233883E+02
0.237725502846634E+02
0.236432936831288E+02
0.235365667945495E+02
0.234534637103078E+02
0.233948589883462E+02
0.233614006515702E+02
0.233535050399262E+02
0.256583695015767E+02
0.254007595128823E+02
0.251455043849379E+02
0.248951482087012E+02
0.246521800125270E+02
0.244190103671579E+02
0.241979491412069E+02
0.239911845733410E+02
0.238007638019725E+02
0.236285749689326E+02
0.234763309908982E+02
0.233455550717281E+02
0.232375680106512E+02
0.231534773456215E+02
0.230941683581689E+02
0.230602969556523E+02
0.230522844387690E+02
0.253848168324360E+02
0.251242665102332E+02
0.248660898985850E+02
0.246128603799402E+02
0.243670959194854E+02
0.241312353765414E+02
0.239076159694202E+02
0.236984520633250E+02
0.235058154255385E+02
0.233316170678181E+02
0.231775907731542E+02
0.230452783833070E+02
0.229360169051255E+02
0.228509274777709E+02
0.227909062296495E+02
0.227566170430604E+02
0.227484862360776E+02
0.281808452378164E+02
0.279499516457595E+02
0.277212401219655E+02
0.274969886652873E+02
0.272794234882567E+02
0.270706982846500E+02
0.268728746185960E+02
0.266879035710487E+02
0.265176087535356E+02
0.263636707747699E+02
0.262276132235899E+02
0.261107902122440E+02
0.260143755075940E+02
0.259393532645396E+02
0.258865103658922E+02
0.258564303659220E+02
0.258494890306043E+02
0.281400937736784E+02
0.279087741774461E+02
0.276796394264795E+02
0.274549717617859E+02
0.272370015850402E+02
0.270278866837667E+02
0.268296925785543E+02
0.266443741286064E+02
0.264737585060247E+02
0.263195296249021E+02
0.261832140891643E+02
0.260661687036369E+02
0.259695695763404E+02
0.258944028267074E+02
0.258414569042980E+02
0.258113165155281E+02
0.258043581516697E+02
0.280726300284152E+02
0.278406047857746E+02
0.276107689867443E+02
0.273854118992240E+02
0.271667708640264E+02
0.269570104498495E+02
0.267582027310902E+02
0.265723088256002E+02
0.264011618035896E+02
0.262464510545589E+02
0.261097081769931E+02
0.259922944360493E+02
0.258953898179554E+02
0.258199836964633E+02
0.257668671165064E+02
0.257366266930621E+02
0.257296401188621E+02
0.279791316534300E+02
0.277461276267822E+02
0.275153194187559E+02
0.272890060441907E+02
0.270694344692323E+02
0.268587786689064E+02
0.266591198086542E+02
0.264724276880330E+02
0.263005435589104E+02
0.261451644061535E+02
0.260078287566403E+02
0.258899040628834E+02
0.257925756909682E+02
0.257168375290548E+02
0.256634842223884E+02
0.256331050334941E+02
0.256260793217327E+02
0.278605366641761E+02
0.276262897500852E+02
0.273942467443731E+02
0.271667190390159E+02
0.269459658230671E+02
0.267341730165347E+02
0.265334333296345E+02
0.263457275870255E+02
0.261729074307838E+02
0.260166794915367E+02
0.258785910949821E+02
0.257600175514204E+02
0.256621510592609E+02
0.255859912398973E+02
0.255323373109142E+02
0.255017818971542E+02
0.254947064745023E+02
0.277180329411451E+02
0.274822905276870E+02
0.272487617485642E+02
0.270197728887860E+02
0.267975978451476E+02
0.265844369112429E+02
0.263823966895447E+02
0.261934712718483E+02
0.260195248035530E+02
0.258622755229168E+02
0.257232813441908E+02
0.256039270338753E+02
0.255054130125737E+02
0.254287458012245E+02
0.253747301198937E+02
0.253439626396912E+02
0.253368273834865E+02
0.275530450077100E+02
0.273155683392554E+02
0.270803165728987E+02
0.268496332647474E+02
0.266258093682080E+02
0.264110618463330E+02
0.262075134131805E+02
0.260171735474473E+02
0.258419208958421E+02
0.256834871593276E+02
0.255434425330873E+02
0.254231827513383E+02
0.253239177712228E+02
0.252466621161712E+02
0.251922268883352E+02
0.251612134518582E+02
0.251540087836074E+02
0.273672182827402E+02
0.271277847120007E+02
0.268905887436280E+02
0.266579934226422E+02
0.264323089498378E+02
0.262157710992496E+02
0.260105207668098E+02
0.258185847956735E+02
0.256418581979324E+02
0.254820878680970E+02
0.253408578614096E+02
0.252195762902292E+02
0.251194638747151E+02
0.250415441700169E+02
0.249866354811803E+02
0.249553444688889E+02
0.249480614437486E+02
0.271624010397425E+02
0.269208061472273E+02
0.266814628667299E+02
0.264467557686426E+02
0.262190163129893E+02
0.260005010515963E+02
0.257933709638358E+02
0.255996720738731E+02
0.254213174716307E+02
0.252600708353360E+02
0.251175315311632E+02
0.249951213455537E+02
0.248940728886475E+02
0.248154196930496E+02
0.247599880209159E+02
0.247283903839877E+02
0.247210207754690E+02
0.269406243326364E+02
0.266966838940969E+02
0.264550102508780E+02
0.262180113342489E+02
0.259880416770072E+02
0.257673803819353E+02
0.255582102263870E+02
0.253625980536031E+02
0.251824765756766E+02
0.250196276887438E+02
0.248756673785682E+02
0.247520322746552E+02
0.246499678937305E+02
0.245705185989956E+02
0.245145192900852E+02
0.244825888299874E+02
0.244751252091266E+02
0.267040801706141E+02
0.264576319536353E+02
0.262134667419345E+02
0.259740174443003E+02
0.257416632638523E+02
0.255187074165383E+02
0.253073559884676E+02
0.251096980855321E+02
0.249276874031377E+02
0.247631253195257E+02
0.246176455936964E+02
0.244927007288133E+02
0.243895500444913E+02
0.243092494867333E+02
0.242526431925171E+02
0.242203568170502E+02
0.242127926252857E+02
0.264550982405983E+02
0.262060036122465E+02
0.259592090689655E+02
0.257171738788113E+02
0.254823032809210E+02
0.252569259401450E+02
0.250432725433364E+02
0.248434556937654E+02
0.246594512345482E+02
0.244930811076417E+02
0.243459978324275E+02
0.242196706676614E+02
0.241153735029140E+02
0.240341745107563E+02
0.239769275788905E+02
0.239442655321034E+02
0.239365951471118E+02
0.261961214854818E+02
0.259442668138674E+02
0.256947300118490E+02
0.254499978396153E+02
0.252125026923199E+02
0.249845997794231E+02
0.247685454485967E+02
0.245664768138065E+02
0.243803928216739E+02
0.242121368658725E+02
0.240633810367364E+02
0.239356120728856E+02
0.238301190638436E+02
0.237479829375034E+02
0.236900677539454E+02
0.236570138174315E+02
0.236492326111876E+02
0.259296808497518E+02
0.256749786835390E+02
0.254226127044056E+02
0.251750980368734E+02
0.249348950947427E+02
0.247043864763217E+02
0.244858550071722E+02
0.242814630932472E+02
0.240932335218355E+02
0.239230318233883E+02
0.237725502846634E+02
0.236432936831288E+02
0.235365667945495E+02
0.234534637103078E+02
0.233948589883462E+02
0.233614006515702E+02
0.233535050399262E+02
0.256583695015767E+02
0.254007595128823E+02
0.251455043849379E+02
0.248951482087012E+02
0.246521800125270E+02
0.244190103671579E+02
0.241979491412069E+02
0.239911845733410E+02
0.238007638019725E+02
0.236285749689326E+02
0.234763309908982E+02
0.233455550717281E+02
0.232375680106512E+02
0.231534773456215E+02
0.230941683581689E+02
0.230602969556523E+02
0.230522844387690E+02
0.253848168324360E+02
0.251242665102332E+02
0.248660898985850E+02
0.246128603799402E+02
0.243670959194854E+02
0.241312353765414E+02
0.239076159694202E+02
0.236984520633250E+02
0.235058154255385E+02
0.233316170678181E+02
0.231775907731542E+02
0.230452783833070E+02
0.229360169051255E+02
0.228509274777709E+02
0.227909062296495E+02
0.227566170430604E+02
0.227484862360776E+02
0.281808452378164E+02
0.279499516457595E+02
0.277212401219655E+02
0.274969886652873E+02
0.272794234882567E+02
0.270706982846500E+02
0.268728746185960E+02
0.266879035710487E+02
0.265176087535356E+02
0.263636707747699E+02
0.262276132235899E+02
0.261107902122440E+02
0.260143755075940E+02
0.259393532645396E+02
0.258865103658922E+02
0.258564303659220E+02
0.258494890306043E+02
0.281400937736784E+02
0.279087741774461E+02
0.276796394264795E+02
0.274549717617859E+02
0.272370015850402E+02
0.270278866837667E+02
0.268296925785543E+02
0.266443741286064E+02
0.264737585060247E+02
0.263195296249021E+02
0.261832140891643E+02
0.260661687036369E+02
0.259695695763404E+02
0.258944028267074E+02
0.258414569042980E+02
0.258113165155281E+02
0.258043581516697E+02
0.280726300284152E+02
0.278406047857746E+02
0.276107689867443E+02
0.273854118992240E+02
0.271667708640264E+02
0.269570104498495E+02
0.267582027310902E+02
0.265723088256002E+02
0.264011618035896E+02
0.262464510545589E+02
0.261097081769931E+02
0.259922944360493E+02
0.258953898179554E+02
0.258199836964633E+02
0.257668671165064E+02
0.257366266930621E+02
0.257296401188621E+02
0.279791316534300E+02
0.277461276267822E+02
0.275153194187559E+02
0.272890060441907E+02
0.270694344692323E+02
0.268587786689064E+02
0.266591198086542E+02
0.264724276880330E+02
0.263005435589104E+02
0.261451644061535E+02
0.260078287566403E+02
0.258899040628834E+02
0.257925756909682E+02
0.257168375290548E+02
0.256634842223884E+02
0.256331050334941E+02
0.256260793217327E+02
0.278605366641761E+02
0.276262897500852E+02
0.273942467443731E+02
0.271667190390159E+02
0.269459658230671E+02
0.267341730165347E+02
0.265334333296345E+02
0.263457275870255E+02
0.261729074307838E+02
0.260166794915367E+02
0.258785910949821E+02
0.257600175514204E+02
0.256621510592609E+02
0.255859912398973E+02
0.255323373109142E+02
0.255017818971542E+02
0.254947064745023E+02
0.277180329411451E+02
0.274822905276870E+02
0.272487617485642E+02
0.270197728887860E+02
0.267975978451476E+02
0.265844369112429E+02
0.263823966895447E+02
0.261934712718483E+02
0.260195248035530E+02
0.258622755229168E+02
0.257232813441908E+02
0.256039270338753E+02
0.255054130125737E+02
0.254287458012245E+02
0.253747301198937E+02
0.253439626396912E+02
0.253368273834865E+02
0.275530450077100E+02
0.273155683392554E+02
0.270803165728987E+02
0.268496332647474E+02
0.266258093682080E+02
0.264110618463330E+02
0.262075134131805E+02
0.260171735474473E+02
0.258419208958421E+02
0.256834871593276E+02
0.255434425330873E+02
0.254231827513383E+02
0.253239177712228E+02
0.252466621161712E+02
0.251922268883352E+02
0.251612134518582E+02
0.251540087836074E+02
0.273672182827402E+02
0.271277847120007E+02
0.268905887436280E+02
0.266579934226422E+02
0.264323089498378E+02
0.262157710992496E+02
0.260105207668098E+02
0.258185847956735E+02
0.256418581979324E+02
0.254820878680970E+02
0.253408578614096E+02
0.252195762902292E+02
0.251194638747151E+02
0.250415441700169E+02
0.249866354811803E+02
0.249553444688889E+02
0.249480614437486E+02
0.271624010397425E+02
0.269208061472273E+02
0.266814628667299E+02
0.264467557686426E+02
0.262190163129893E+02
0.260005010515963E+02
0.257933709638358E+02
0.255996720738731E+02
0.254213174716307E+02
0.252600708353360E+02
0.251175315311632E+02
0.249951213455537E+02
0.248940728886475E+02
0.248154196930496E+02
0.247599880209159E+02
0.247283903839877E+02
0.247210207754690E+02
0.269406243326364E+02
0.266966838940969E+02
0.264550102508780E+02
0.262180113342489E+02
0.259880416770072E+02
0.257673803819353E+02
0.255582102263870E+02
0.253625980536031E+02
0.251824765756766E+02
0.250196276887438E+02
0.248756673785682E+02
0.247520322746552E+02
0.246499678937305E+02
0.245705185989956E+02
0.245145192900852E+02
0.244825888299874E+02
0.244751252091266E+02
0.267040801706141E+02
0.264576319536353E+02
0.262134667419345E+02
0.259740174443003E+02
0.257416632638523E+02
0.255187074165383E+02
0.253073559884676E+02
0.251096980855321E+02
0.249276874031377E+02
0.247631253195257E+02
0.246176455936964E+02
0.244927007288133E+02
0.243895500444913E+02
0.243092494867333E+02
0.242526431925171E+02
0.242203568170502E+02
0.242127926252857E+02
0.264550982405983E+02
0.262060036122465E+02
0.259592090689655E+02
0.257171738788113E+02
0.254823032809210E+02
0.252569259401450E+02
0.250432725433364E+02
0.248434556937654E+02
0.246594512345482E+02
0.244930811076417E+02
0.243459978324275E+02
0.242196706676614E+02
0.241153735029140E+02
0.240341745107563E+02
0.239769275788905E+02
0.239442655321034E+02
0.239365951471118E+02
0.261961214854818E+02
0.259442668138674E+02
0.256947300118490E+02
0.254499978396153E+02
0.252125026923199E+02
0.249845997794231E+02
0.247685454485967E+02
0.245664768138065E+02
0.243803928216739E+02
0.242121368658725E+02
0.240633810367364E+02
0.239356120728856E+02
0.238301190638436E+02
0.237479829375034E+02
0.236900677539454E+02
0.236570138174315E+02
0.236492326111876E+02
0.259296808497518E+02
0.256749786835390E+02
0.254226127044056E+02
0.251750980368734E+02
0.249348950947427E+02
0.247043864763217E+02
0.244858550071722E+02
0.242814630932472E+02
0.240932335218355E+02
0.239230318233883E+02
0.237725502846634E+02
0.236432936831288E+02
0.235365667945495E+02
0.234534637103078E+02
0.233948589883462E+02
0.233614006515702E+02
0.233535050399262E+02
0.256583695015767E+02
0.254007595128823E+02
0.251455043849379E+02
0.248951482087012E+02
0.246521800125270E+02
0.244190103671579E+02
0.241979491412069E+02
0.239911845733410E+02
0.238007638019725E+02
0.236285749689326E+02
0.234763309908982E+02
0.233455550717281E+02
0.232375680106512E+02
0.231534773456215E+02
0.230941683581689E+02
0.230602969556523E+02
0.230522844387690E+02
0.253848168324360E+02
0.251242665102332E+02
0.248660898985850E+02
0.246128603799402E+02
0.243670959194854E+02
0.241312353765414E+02
0.239076159694202E+02
0.236984520633250E+02
0.235058154255385E+02
0.233316170678181E+02
0.231775907731542E+02
0.230452783833070E+02
0.229360169051255E+02
0.228509274777709E+02
0.227909062296495E+02
0.227566170430604E+02
0.227484862360776E+02
</DataArray>
</PointData>
</Piece>
</RectilinearGrid>
</VTKFile>
