<?xml version="1.0"?>
<VTKFile type="RectilinearGrid" version="0.1" byte_order="LittleEndian">
<RectilinearGrid WholeExtent="0   63    0   63    0    3">
<Piece Extent="31   47    0   15    0    3">
<Coordinates>
<DataArray Name="x" type="Float32" format="ascii">
0.310000000000000E+01
0.320000000000000E+01
0.330000000000000E+01
0.340000000000000E+01
0.350000000000000E+01
0.360000000000000E+01
0.370000000000000E+01
0.380000000000000E+01
0.390000000000000E+01
0.400000000000000E+01
0.410000000000000E+01
0.420000000000000E+01
0.430000000000000E+01
0.440000000000000E+01
0.450000000000000E+01
0.460000000000000E+01
0.470000000000000E+01
</DataArray>
<DataArray Name="y" type="Float32" format="ascii">
0.000000000000000E+00
0.100000000000000E+00
0.200000000000000E+00
0.300000000000000E+00
0.400000000000000E+00
0.500000000000000E+00
0.600000000000000E+00
0.700000000000000E+00
0.800000000000000E+00
0.900000000000000E+00
0.100000000000000E+01
0.110000000000000E+01
0.120000000000000E+01
0.130000000000000E+01
0.140000000000000E+01
0.150000000000000E+01
</DataArray>
<DataArray Name="z" type="Float32" format="ascii">
0.000000000000000E+00
0.100000000000000E+00
0.200000000000000E+00
0.300000000000000E+00
</DataArray>
</Coordinates>
<PointData Scalars="c">
<DataArray type="Float32" Name="c" format="ascii">
0.294756509167039E+02
0.294929209552684E+02
0.295446718841798E+02
0.296307271099097E+02
0.297507954946591E+02
0.299044760104495E+02
0.300912640150216E+02
0.303105589227211E+02
0.305616729912047E+02
0.308438408891021E+02
0.311562296311545E+02
0.314979483277151E+02
0.318680569285579E+02
0.322655726428422E+02
0.326894718443614E+02
0.331386838598017E+02
0.336120709628543E+02
0.292388916885905E+02
0.292563246470917E+02
0.293085624311898E+02
0.293954227924790E+02
0.295166053615500E+02
0.296716965801152E+02
0.298601763437798E+02
0.300814261086980E+02
0.303347381604079E+02
0.306193256865647E+02
0.309343332173288E+02
0.312788468593128E+02
0.316519034843369E+02
0.320524975381398E+02
0.324795832622434E+02
0.329320687093808E+02
0.334087958537681E+02
0.288550664819918E+02
0.288727674465687E+02
0.289258060613839E+02
0.290139906162287E+02
0.291370053017382E+02
0.292944156155874E+02
0.294856756299457E+02
0.297101368387719E+02
0.299670582442174E+02
0.302556172835017E+02
0.305749211210464E+02
0.309240176961586E+02
0.313019056561528E+02
0.317075418124848E+02
0.321398438872661E+02
0.325976849028915E+02
0.330798734817670E+02
0.283389783280063E+02
0.283570477024068E+02
0.284111870504323E+02
0.285011913194658E+02
0.286267229416332E+02
0.287873179274738E+02
0.289823940373950E+02
0.292112606978144E+02
0.294731302633735E+02
0.297671301671746E+02
0.300923154270030E+02
0.304476808465652E+02
0.308321719973040E+02
0.312446935803175E+02
0.316841129011253E+02
0.321492547737316E+02
0.326388820763791E+02
0.277089151478490E+02
0.277274478761603E+02
0.277829714331187E+02
0.278752634058265E+02
0.280039579401756E+02
0.281685527624167E+02
0.283684185673650E+02
0.286028103678415E+02
0.288708803263390E+02
0.291716915291417E+02
0.295042320936873E+02
0.298674288797975E+02
0.302601598326008E+02
0.306812635087841E+02
0.311295434770712E+02
0.316037638669813E+02
0.321026302366756E+02
0.269847842596947E+02
0.270038698966615E+02
0.270610448904352E+02
0.271560652194432E+02
0.272885298600811E+02
0.274578890160543E+02
0.276634550847923E+02
0.279044158573196E+02
0.281798493643415E+02
0.284887397200549E+02
0.288299932534473E+02
0.292024541100975E+02
0.296049182806462E+02
0.300361445507481E+02
0.304948600165425E+02
0.309797563944405E+02
0.314894712416598E+02
0.261863562256666E+02
0.262060798180142E+02
0.262651598291632E+02
0.263633260232878E+02
0.265001347692056E+02
0.266749788129483E+02
0.268871002522474E+02
0.271356060776341E+02
0.274194855493148E+02
0.277376286191312E+02
0.280888445577274E+02
0.284718798604826E+02
0.288854343022882E+02
0.293281735716478E+02
0.297987360792425E+02
0.302957301258615E+02
0.308177154940893E+02
0.253318614057414E+02
0.253523050427430E+02
0.254135346004442E+02
0.255152485035579E+02
0.256569522651368E+02
0.258379702143904E+02
0.260574610028839E+02
0.263144360780243E+02
0.266077802035966E+02
0.269362730521404E+02
0.272986108648014E+02
0.276934271176834E+02
0.281193109639808E+02
0.285748218127562E+02
0.290584975927098E+02
0.295688528487309E+02
0.301043606921548E+02
0.244370724274636E+02
0.244583172613570E+02
0.245219378357577E+02
0.246275953907276E+02
0.247747352115486E+02
0.249626008275792E+02
0.251902527001704E+02
0.254565903538077E+02
0.257603767807208E+02
0.261002639051113E+02
0.264748178952941E+02
0.268825430994604E+02
0.273219032591289E+02
0.277913382898063E+02
0.282892741383064E+02
0.288141218412762E+02
0.293642597785724E+02
0.235148897271943E+02
0.235370182553774E+02
0.236032750210622E+02
0.237132772734234E+02
0.238663991986986E+02
0.240617892448614E+02
0.242983928092752E+02
0.245749789292971E+02
0.248901694769609E+02
0.252424693355375E+02
0.256302960860583E+02
0.260520077834270E+02
0.265059273480354E+02
0.269903617949357E+02
0.275036137872242E+02
0.280439816381532E+02
0.286097417539141E+02
0.225753556118905E+02
0.225984540406303E+02
0.226676028689534E+02
0.227823673022492E+02
0.229420376152519E+02
0.231456504415403E+02
0.233920164998811E+02
0.236797529755419E+02
0.240073186227876E+02
0.243730496679357E+02
0.247751947157041E+02
0.252119470058234E+02
0.256814724082315E+02
0.261819313240407E+02
0.267114919838326E+02
0.272683313033664E+02
0.278506173241869E+02
0.216259711781391E+02
0.216501317314105E+02
0.217224460009568E+02
0.218424175145074E+02
0.220092373681514E+02
0.222218105614430E+02
0.224787900887669E+02
0.227786164372640E+02
0.231195599818419E+02
0.234997638419170E+02
0.239172849974703E+02
0.243701317392061E+02
0.248562957008389E+02
0.253737766116683E+02
0.259205973098572E+02
0.264948052640338E+02
0.270944547179991E+02
0.206721807000612E+02
0.206975037753783E+02
0.207732807051731E+02
0.208989417392818E+02
0.210735604859962E+02
0.212958866871436E+02
0.215643883701474E+02
0.218773002620206E+02
0.222326751932846E+02
0.226284353921071E+02
0.230624209642610E+02
0.235324333209163E+02
0.240362716709294E+02
0.245717607320775E+02
0.251367673169083E+02
0.257292022017516E+02
0.263470015506030E+02
0.197179092535948E+02
0.197445053413694E+02
0.198240715973939E+02
0.199559509937862E+02
0.201390776450823E+02
0.203720178184545E+02
0.206530223097652E+02
0.209800860393728E+02
0.213510105865878E+02
0.217634657075309E+02
0.222150465140613E+02
0.227033237246773E+02
0.232258850001349E+02
0.237803656076615E+02
0.243644662813808E+02
0.249759549493440E+02
0.256126468471449E+02
0.187660762076092E+02
0.187940674700752E+02
0.188777837380614E+02
0.190164638398805E+02
0.192088759947690E+02
0.194533693558162E+02
0.197479393539685E+02
0.200903013120454E+02
0.204779667162136E+02
0.209083170922083E+02
0.213786714095506E+02
0.218863440425713E+02
0.224286912522520E+02
0.230031446336873E+02
0.236072297452384E+02
0.242385669870977E+02
0.248948496145584E+02
0.178190458675740E+02
0.178485672132980E+02
0.179368312571692E+02
0.180829524841366E+02
0.182855017297375E+02
0.185425711671380E+02
0.188518560657918E+02
0.192107459405712E+02
0.196164177313644E+02
0.200659245609080E+02
0.205562750823474E+02
0.210845000467889E+02
0.216477041005939E+02
0.222431016205633E+02
0.228680353386796E+02
0.235199753989904E+02
0.241964942437590E+02
0.294756509167038E+02
0.294929209552684E+02
0.295446718841797E+02
0.296307271099096E+02
0.297507954946590E+02
0.299044760104495E+02
0.300912640150215E+02
0.303105589227210E+02
0.305616729912047E+02
0.308438408891020E+02
0.311562296311544E+02
0.314979483277151E+02
0.318680569285578E+02
0.322655726428421E+02
0.326894718443614E+02
0.331386838598017E+02
0.336120709628543E+02
0.292388916885904E+02
0.292563246470917E+02
0.293085624311897E+02
0.293954227924790E+02
0.295166053615499E+02
0.296716965801151E+02
0.298601763437798E+02
0.300814261086980E+02
0.303347381604079E+02
0.306193256865647E+02
0.309343332173288E+02
0.312788468593128E+02
0.316519034843368E+02
0.320524975381398E+02
0.324795832622433E+02
0.329320687093807E+02
0.334087958537680E+02
0.288550664819917E+02
0.288727674465686E+02
0.289258060613838E+02
0.290139906162286E+02
0.291370053017381E+02
0.292944156155874E+02
0.294856756299457E+02
0.297101368387718E+02
0.299670582442174E+02
0.302556172835016E+02
0.305749211210464E+02
0.309240176961585E+02
0.313019056561528E+02
0.317075418124848E+02
0.321398438872660E+02
0.325976849028914E+02
0.330798734817670E+02
0.283389783280062E+02
0.283570477024068E+02
0.284111870504323E+02
0.285011913194657E+02
0.286267229416331E+02
0.287873179274738E+02
0.289823940373949E+02
0.292112606978144E+02
0.294731302633735E+02
0.297671301671745E+02
0.300923154270029E+02
0.304476808465652E+02
0.308321719973040E+02
0.312446935803174E+02
0.316841129011252E+02
0.321492547737315E+02
0.326388820763791E+02
0.277089151478490E+02
0.277274478761602E+02
0.277829714331186E+02
0.278752634058264E+02
0.280039579401755E+02
0.281685527624166E+02
0.283684185673650E+02
0.286028103678414E+02
0.288708803263390E+02
0.291716915291416E+02
0.295042320936873E+02
0.298674288797974E+02
0.302601598326008E+02
0.306812635087841E+02
0.311295434770712E+02
0.316037638669812E+02
0.321026302366755E+02
0.269847842596947E+02
0.270038698966614E+02
0.270610448904352E+02
0.271560652194432E+02
0.272885298600811E+02
0.274578890160543E+02
0.276634550847923E+02
0.279044158573195E+02
0.281798493643414E+02
0.284887397200549E+02
0.288299932534472E+02
0.292024541100974E+02
0.296049182806461E+02
0.300361445507481E+02
0.304948600165425E+02
0.309797563944405E+02
0.314894712416598E+02
0.261863562256666E+02
0.262060798180142E+02
0.262651598291631E+02
0.263633260232878E+02
0.265001347692055E+02
0.266749788129482E+02
0.268871002522474E+02
0.271356060776341E+02
0.274194855493148E+02
0.277376286191312E+02
0.280888445577273E+02
0.284718798604826E+02
0.288854343022882E+02
0.293281735716478E+02
0.297987360792425E+02
0.302957301258614E+02
0.308177154940892E+02
0.253318614057414E+02
0.253523050427430E+02
0.254135346004441E+02
0.255152485035578E+02
0.256569522651368E+02
0.258379702143904E+02
0.260574610028839E+02
0.263144360780243E+02
0.266077802035965E+02
0.269362730521404E+02
0.272986108648013E+02
0.276934271176833E+02
0.281193109639808E+02
0.285748218127561E+02
0.290584975927097E+02
0.295688528487309E+02
0.301043606921548E+02
0.244370724274635E+02
0.244583172613570E+02
0.245219378357577E+02
0.246275953907276E+02
0.247747352115485E+02
0.249626008275792E+02
0.251902527001703E+02
0.254565903538077E+02
0.257603767807207E+02
0.261002639051112E+02
0.264748178952941E+02
0.268825430994603E+02
0.273219032591289E+02
0.277913382898063E+02
0.282892741383064E+02
0.288141218412761E+02
0.293642597785724E+02
0.235148897271943E+02
0.235370182553774E+02
0.236032750210622E+02
0.237132772734234E+02
0.238663991986986E+02
0.240617892448614E+02
0.242983928092752E+02
0.245749789292971E+02
0.248901694769608E+02
0.252424693355374E+02
0.256302960860583E+02
0.260520077834269E+02
0.265059273480354E+02
0.269903617949357E+02
0.275036137872242E+02
0.280439816381531E+02
0.286097417539140E+02
0.225753556118904E+02
0.225984540406302E+02
0.226676028689533E+02
0.227823673022492E+02
0.229420376152519E+02
0.231456504415402E+02
0.233920164998811E+02
0.236797529755418E+02
0.240073186227876E+02
0.243730496679357E+02
0.247751947157041E+02
0.252119470058233E+02
0.256814724082315E+02
0.261819313240406E+02
0.267114919838325E+02
0.272683313033664E+02
0.278506173241868E+02
0.216259711781391E+02
0.216501317314105E+02
0.217224460009567E+02
0.218424175145073E+02
0.220092373681514E+02
0.222218105614429E+02
0.224787900887669E+02
0.227786164372639E+02
0.231195599818419E+02
0.234997638419169E+02
0.239172849974703E+02
0.243701317392060E+02
0.248562957008389E+02
0.253737766116682E+02
0.259205973098571E+02
0.264948052640337E+02
0.270944547179991E+02
0.206721807000611E+02
0.206975037753783E+02
0.207732807051731E+02
0.208989417392818E+02
0.210735604859962E+02
0.212958866871435E+02
0.215643883701473E+02
0.218773002620205E+02
0.222326751932845E+02
0.226284353921070E+02
0.230624209642609E+02
0.235324333209162E+02
0.240362716709294E+02
0.245717607320775E+02
0.251367673169082E+02
0.257292022017516E+02
0.263470015506029E+02
0.197179092535947E+02
0.197445053413693E+02
0.198240715973939E+02
0.199559509937862E+02
0.201390776450822E+02
0.203720178184544E+02
0.206530223097652E+02
0.209800860393727E+02
0.213510105865878E+02
0.217634657075309E+02
0.222150465140612E+02
0.227033237246772E+02
0.232258850001349E+02
0.237803656076615E+02
0.243644662813807E+02
0.249759549493440E+02
0.256126468471448E+02
0.187660762076091E+02
0.187940674700751E+02
0.188777837380614E+02
0.190164638398805E+02
0.192088759947689E+02
0.194533693558161E+02
0.197479393539684E+02
0.200903013120453E+02
0.204779667162136E+02
0.209083170922082E+02
0.213786714095505E+02
0.218863440425712E+02
0.224286912522519E+02
0.230031446336872E+02
0.236072297452383E+02
0.242385669870976E+02
0.248948496145583E+02
0.178190458675740E+02
0.178485672132979E+02
0.179368312571691E+02
0.180829524841365E+02
0.182855017297375E+02
0.185425711671379E+02
0.188518560657917E+02
0.192107459405711E+02
0.196164177313644E+02
0.200659245609079E+02
0.205562750823474E+02
0.210845000467888E+02
0.216477041005938E+02
0.222431016205632E+02
0.228680353386796E+02
0.235199753989904E+02
0.241964942437590E+02
0.294756509167039E+02
0.294929209552684E+02
0.295446718841798E+02
0.296307271099097E+02
0.297507954946591E+02
0.299044760104495E+02
0.300912640150216E+02
0.303105589227211E+02
0.305616729912047E+02
0.308438408891021E+02
0.311562296311545E+02
0.314979483277151E+02
0.318680569285579E+02
0.322655726428422E+02
0.326894718443614E+02
0.331386838598017E+02
0.336120709628543E+02
0.292388916885905E+02
0.292563246470917E+02
0.293085624311898E+02
0.293954227924790E+02
0.295166053615500E+02
0.296716965801152E+02
0.298601763437798E+02
0.300814261086980E+02
0.303347381604079E+02
0.306193256865647E+02
0.309343332173288E+02
0.312788468593128E+02
0.316519034843369E+02
0.320524975381398E+02
0.324795832622434E+02
0.329320687093808E+02
0.334087958537681E+02
0.288550664819918E+02
0.288727674465687E+02
0.289258060613839E+02
0.290139906162287E+02
0.291370053017382E+02
0.292944156155874E+02
0.294856756299457E+02
0.297101368387719E+02
0.299670582442174E+02
0.302556172835017E+02
0.305749211210464E+02
0.309240176961586E+02
0.313019056561528E+02
0.317075418124848E+02
0.321398438872661E+02
0.325976849028915E+02
0.330798734817670E+02
0.283389783280063E+02
0.283570477024068E+02
0.284111870504323E+02
0.285011913194658E+02
0.286267229416332E+02
0.287873179274738E+02
0.289823940373950E+02
0.292112606978144E+02
0.294731302633735E+02
0.297671301671746E+02
0.300923154270030E+02
0.304476808465652E+02
0.308321719973040E+02
0.312446935803175E+02
0.316841129011253E+02
0.321492547737316E+02
0.326388820763791E+02
0.277089151478490E+02
0.277274478761603E+02
0.277829714331187E+02
0.278752634058265E+02
0.280039579401756E+02
0.281685527624167E+02
0.283684185673650E+02
0.286028103678415E+02
0.288708803263390E+02
0.291716915291417E+02
0.295042320936873E+02
0.298674288797975E+02
0.302601598326008E+02
0.306812635087841E+02
0.311295434770712E+02
0.316037638669813E+02
0.321026302366756E+02
0.269847842596947E+02
0.270038698966615E+02
0.270610448904352E+02
0.271560652194432E+02
0.272885298600811E+02
0.274578890160543E+02
0.276634550847923E+02
0.279044158573196E+02
0.281798493643415E+02
0.284887397200549E+02
0.288299932534473E+02
0.292024541100975E+02
0.296049182806462E+02
0.300361445507481E+02
0.304948600165425E+02
0.309797563944405E+02
0.314894712416598E+02
0.261863562256666E+02
0.262060798180142E+02
0.262651598291632E+02
0.263633260232878E+02
0.265001347692056E+02
0.266749788129483E+02
0.268871002522474E+02
0.271356060776341E+02
0.274194855493148E+02
0.277376286191312E+02
0.280888445577274E+02
0.284718798604826E+02
0.288854343022882E+02
0.293281735716478E+02
0.297987360792425E+02
0.302957301258615E+02
0.308177154940893E+02
0.253318614057414E+02
0.253523050427430E+02
0.254135346004442E+02
0.255152485035579E+02
0.256569522651368E+02
0.258379702143904E+02
0.260574610028839E+02
0.263144360780243E+02
0.266077802035966E+02
0.269362730521404E+02
0.272986108648014E+02
0.276934271176834E+02
0.281193109639808E+02
0.285748218127562E+02
0.290584975927098E+02
0.295688528487309E+02
0.301043606921548E+02
0.244370724274636E+02
0.244583172613570E+02
0.245219378357577E+02
0.246275953907276E+02
0.247747352115486E+02
0.249626008275792E+02
0.251902527001704E+02
0.254565903538077E+02
0.257603767807208E+02
0.261002639051113E+02
0.264748178952941E+02
0.268825430994604E+02
0.273219032591289E+02
0.277913382898063E+02
0.282892741383064E+02
0.288141218412762E+02
0.293642597785724E+02
0.235148897271943E+02
0.235370182553774E+02
0.236032750210622E+02
0.237132772734234E+02
0.238663991986986E+02
0.240617892448614E+02
0.242983928092752E+02
0.245749789292971E+02
0.248901694769609E+02
0.252424693355375E+02
0.256302960860583E+02
0.260520077834270E+02
0.265059273480354E+02
0.269903617949357E+02
0.275036137872242E+02
0.280439816381532E+02
0.286097417539141E+02
0.225753556118905E+02
0.225984540406303E+02
0.226676028689534E+02
0.227823673022492E+02
0.229420376152519E+02
0.231456504415403E+02
0.233920164998811E+02
0.236797529755419E+02
0.240073186227876E+02
0.243730496679357E+02
0.247751947157041E+02
0.252119470058234E+02
0.256814724082315E+02
0.261819313240407E+02
0.267114919838326E+02
0.272683313033664E+02
0.278506173241869E+02
0.216259711781391E+02
0.216501317314105E+02
0.217224460009568E+02
0.218424175145074E+02
0.220092373681514E+02
0.222218105614430E+02
0.224787900887669E+02
0.227786164372640E+02
0.231195599818419E+02
0.234997638419170E+02
0.239172849974703E+02
0.243701317392061E+02
0.248562957008389E+02
0.253737766116683E+02
0.259205973098572E+02
0.264948052640338E+02
0.270944547179991E+02
0.206721807000612E+02
0.206975037753783E+02
0.207732807051731E+02
0.208989417392818E+02
0.210735604859962E+02
0.212958866871436E+02
0.215643883701474E+02
0.218773002620206E+02
0.222326751932846E+02
0.226284353921071E+02
0.230624209642610E+02
0.235324333209163E+02
0.240362716709294E+02
0.245717607320775E+02
0.251367673169083E+02
0.257292022017516E+02
0.263470015506030E+02
0.197179092535948E+02
0.197445053413694E+02
0.198240715973939E+02
0.199559509937862E+02
0.201390776450823E+02
0.203720178184545E+02
0.206530223097652E+02
0.209800860393728E+02
0.213510105865878E+02
0.217634657075309E+02
0.222150465140613E+02
0.227033237246773E+02
0.232258850001349E+02
0.237803656076615E+02
0.243644662813808E+02
0.249759549493440E+02
0.256126468471449E+02
0.187660762076092E+02
0.187940674700752E+02
0.188777837380614E+02
0.190164638398805E+02
0.192088759947690E+02
0.194533693558162E+02
0.197479393539685E+02
0.200903013120454E+02
0.204779667162136E+02
0.209083170922083E+02
0.213786714095506E+02
0.218863440425713E+02
0.224286912522520E+02
0.230031446336873E+02
0.236072297452384E+02
0.242385669870977E+02
0.248948496145584E+02
0.178190458675740E+02
0.178485672132980E+02
0.179368312571692E+02
0.180829524841366E+02
0.182855017297375E+02
0.185425711671380E+02
0.188518560657918E+02
0.192107459405712E+02
0.196164177313644E+02
0.200659245609080E+02
0.205562750823474E+02
0.210845000467889E+02
0.216477041005939E+02
0.222431016205633E+02
0.228680353386796E+02
0.235199753989904E+02
0.241964942437590E+02
0.294756509167039E+02
0.294929209552685E+02
0.295446718841798E+02
0.296307271099097E+02
0.297507954946591E+02
0.299044760104495E+02
0.300912640150216E+02
0.303105589227211E+02
0.305616729912047E+02
0.308438408891021E+02
0.311562296311545E+02
0.314979483277152E+02
0.318680569285579E+02
0.322655726428422E+02
0.326894718443614E+02
0.331386838598018E+02
0.336120709628543E+02
0.292388916885905E+02
0.292563246470918E+02
0.293085624311898E+02
0.293954227924790E+02
0.295166053615500E+02
0.296716965801152E+02
0.298601763437799E+02
0.300814261086980E+02
0.303347381604080E+02
0.306193256865647E+02
0.309343332173289E+02
0.312788468593128E+02
0.316519034843369E+02
0.320524975381399E+02
0.324795832622434E+02
0.329320687093808E+02
0.334087958537681E+02
0.288550664819918E+02
0.288727674465687E+02
0.289258060613839E+02
0.290139906162287E+02
0.291370053017382E+02
0.292944156155875E+02
0.294856756299458E+02
0.297101368387719E+02
0.299670582442175E+02
0.302556172835017E+02
0.305749211210465E+02
0.309240176961586E+02
0.313019056561529E+02
0.317075418124849E+02
0.321398438872661E+02
0.325976849028915E+02
0.330798734817671E+02
0.283389783280063E+02
0.283570477024069E+02
0.284111870504324E+02
0.285011913194658E+02
0.286267229416332E+02
0.287873179274739E+02
0.289823940373950E+02
0.292112606978145E+02
0.294731302633736E+02
0.297671301671746E+02
0.300923154270030E+02
0.304476808465653E+02
0.308321719973041E+02
0.312446935803175E+02
0.316841129011253E+02
0.321492547737316E+02
0.326388820763791E+02
0.277089151478491E+02
0.277274478761603E+02
0.277829714331187E+02
0.278752634058265E+02
0.280039579401756E+02
0.281685527624167E+02
0.283684185673651E+02
0.286028103678415E+02
0.288708803263390E+02
0.291716915291417E+02
0.295042320936874E+02
0.298674288797975E+02
0.302601598326009E+02
0.306812635087842E+02
0.311295434770713E+02
0.316037638669813E+02
0.321026302366756E+02
0.269847842596948E+02
0.270038698966615E+02
0.270610448904353E+02
0.271560652194433E+02
0.272885298600812E+02
0.274578890160544E+02
0.276634550847924E+02
0.279044158573196E+02
0.281798493643415E+02
0.284887397200550E+02
0.288299932534473E+02
0.292024541100975E+02
0.296049182806462E+02
0.300361445507481E+02
0.304948600165426E+02
0.309797563944406E+02
0.314894712416598E+02
0.261863562256667E+02
0.262060798180143E+02
0.262651598291632E+02
0.263633260232879E+02
0.265001347692056E+02
0.266749788129483E+02
0.268871002522475E+02
0.271356060776342E+02
0.274194855493149E+02
0.277376286191313E+02
0.280888445577274E+02
0.284718798604827E+02
0.288854343022883E+02
0.293281735716479E+02
0.297987360792425E+02
0.302957301258615E+02
0.308177154940893E+02
0.253318614057415E+02
0.253523050427431E+02
0.254135346004442E+02
0.255152485035579E+02
0.256569522651369E+02
0.258379702143905E+02
0.260574610028840E+02
0.263144360780244E+02
0.266077802035966E+02
0.269362730521405E+02
0.272986108648014E+02
0.276934271176834E+02
0.281193109639809E+02
0.285748218127562E+02
0.290584975927098E+02
0.295688528487310E+02
0.301043606921548E+02
0.244370724274636E+02
0.244583172613571E+02
0.245219378357578E+02
0.246275953907277E+02
0.247747352115486E+02
0.249626008275793E+02
0.251902527001704E+02
0.254565903538078E+02
0.257603767807208E+02
0.261002639051113E+02
0.264748178952942E+02
0.268825430994604E+02
0.273219032591290E+02
0.277913382898064E+02
0.282892741383065E+02
0.288141218412762E+02
0.293642597785725E+02
0.235148897271944E+02
0.235370182553775E+02
0.236032750210623E+02
0.237132772734235E+02
0.238663991986987E+02
0.240617892448615E+02
0.242983928092753E+02
0.245749789292972E+02
0.248901694769609E+02
0.252424693355375E+02
0.256302960860584E+02
0.260520077834270E+02
0.265059273480355E+02
0.269903617949358E+02
0.275036137872243E+02
0.280439816381532E+02
0.286097417539141E+02
0.225753556118905E+02
0.225984540406304E+02
0.226676028689534E+02
0.227823673022493E+02
0.229420376152520E+02
0.231456504415403E+02
0.233920164998812E+02
0.236797529755419E+02
0.240073186227877E+02
0.243730496679358E+02
0.247751947157042E+02
0.252119470058234E+02
0.256814724082316E+02
0.261819313240407E+02
0.267114919838326E+02
0.272683313033665E+02
0.278506173241869E+02
0.216259711781392E+02
0.216501317314106E+02
0.217224460009568E+02
0.218424175145075E+02
0.220092373681515E+02
0.222218105614430E+02
0.224787900887670E+02
0.227786164372640E+02
0.231195599818420E+02
0.234997638419170E+02
0.239172849974704E+02
0.243701317392062E+02
0.248562957008390E+02
0.253737766116683E+02
0.259205973098572E+02
0.264948052640338E+02
0.270944547179992E+02
0.206721807000612E+02
0.206975037753784E+02
0.207732807051732E+02
0.208989417392819E+02
0.210735604859963E+02
0.212958866871436E+02
0.215643883701474E+02
0.218773002620207E+02
0.222326751932847E+02
0.226284353921072E+02
0.230624209642610E+02
0.235324333209163E+02
0.240362716709295E+02
0.245717607320776E+02
0.251367673169083E+02
0.257292022017517E+02
0.263470015506030E+02
0.197179092535949E+02
0.197445053413695E+02
0.198240715973940E+02
0.199559509937863E+02
0.201390776450824E+02
0.203720178184545E+02
0.206530223097653E+02
0.209800860393728E+02
0.213510105865879E+02
0.217634657075310E+02
0.222150465140614E+02
0.227033237246773E+02
0.232258850001350E+02
0.237803656076616E+02
0.243644662813808E+02
0.249759549493441E+02
0.256126468471449E+02
0.187660762076092E+02
0.187940674700753E+02
0.188777837380615E+02
0.190164638398806E+02
0.192088759947690E+02
0.194533693558163E+02
0.197479393539686E+02
0.200903013120454E+02
0.204779667162137E+02
0.209083170922084E+02
0.213786714095506E+02
0.218863440425713E+02
0.224286912522520E+02
0.230031446336873E+02
0.236072297452384E+02
0.242385669870977E+02
0.248948496145584E+02
0.178190458675741E+02
0.178485672132981E+02
0.179368312571693E+02
0.180829524841367E+02
0.182855017297376E+02
0.185425711671380E+02
0.188518560657919E+02
0.192107459405713E+02
0.196164177313645E+02
0.200659245609081E+02
0.205562750823475E+02
0.210845000467889E+02
0.216477041005940E+02
0.222431016205633E+02
0.228680353386797E+02
0.235199753989905E+02
0.241964942437591E+02
</DataArray>
</PointData>
</Piece>
</RectilinearGrid>
</VTKFile>
