<?xml version="1.0"?>
<VTKFile type="RectilinearGrid" version="0.1" byte_order="LittleEndian">
<RectilinearGrid WholeExtent="0   63    0   63    0    3">
<Piece Extent="47   63    0   15    0    3">
<Coordinates>
<DataArray Name="x" type="Float32" format="ascii">
0.470000000000000E+01
0.480000000000000E+01
0.490000000000000E+01
0.500000000000000E+01
0.510000000000000E+01
0.520000000000000E+01
0.530000000000000E+01
0.540000000000000E+01
0.550000000000000E+01
0.560000000000000E+01
0.570000000000000E+01
0.580000000000000E+01
0.590000000000000E+01
0.600000000000000E+01
0.610000000000000E+01
0.620000000000000E+01
0.630000000000000E+01
</DataArray>
<DataArray Name="y" type="Float32" format="ascii">
0.000000000000000E+00
0.100000000000000E+00
0.200000000000000E+00
0.300000000000000E+00
0.400000000000000E+00
0.500000000000000E+00
0.600000000000000E+00
0.700000000000000E+00
0.800000000000000E+00
0.900000000000000E+00
0.100000000000000E+01
0.110000000000000E+01
0.120000000000000E+01
0.130000000000000E+01
0.140000000000000E+01
0.150000000000000E+01
</DataArray>
<DataArray Name="z" type="Float32" format="ascii">
0.000000000000000E+00
0.100000000000000E+00
0.200000000000000E+00
0.300000000000000E+00
</DataArray>
</Coordinates>
<PointData Scalars="c">
<DataArray type="Float32" Name="c" format="ascii">
0.317505412739877E+02
0.322172008756343E+02
0.326929355508776E+02
0.331734873472786E+02
0.336541715147882E+02
0.341298987900109E+02
0.345952202343345E+02
0.350443969332118E+02
0.354714953939088E+02
0.358705076663195E+02
0.362354931861905E+02
0.365607372786605E+02
0.368409193688410E+02
0.370712824390372E+02
0.372477943434216E+02
0.373672913880939E+02
0.374275951850765E+02
0.316411982540137E+02
0.321098472154936E+02
0.325875566849744E+02
0.330700520243830E+02
0.335526319235377E+02
0.340301907065263E+02
0.344972632152263E+02
0.349480945865918E+02
0.353767357673653E+02
0.357771637933154E+02
0.361434238304903E+02
0.364697879100411E+02
0.367509233928065E+02
0.369820626892942E+02
0.371591648296277E+02
0.372790592743273E+02
0.373395629581904E+02
0.314610373256368E+02
0.319329822286239E+02
0.324139626501583E+02
0.328996763626216E+02
0.333853947011591E+02
0.338659849031204E+02
0.343359550626357E+02
0.347895240325623E+02
0.352207171280899E+02
0.356234866633751E+02
0.359918543157426E+02
0.363200702386137E+02
0.366027819420332E+02
0.368352044434318E+02
0.370132822564274E+02
0.371338335803963E+02
0.371946676562257E+02
0.312130934574806E+02
0.316896119558487E+02
0.321751295138300E+02
0.326653057342322E+02
0.331553741644524E+02
0.336401646743148E+02
0.341141485006012E+02
0.345715083124472E+02
0.350062341669042E+02
0.354122443922144E+02
0.357835283894882E+02
0.361143062597850E+02
0.363991982517051E+02
0.366333955005074E+02
0.368128225897014E+02
0.369342822590861E+02
0.369955731876437E+02
0.309014590006636E+02
0.313837893099697E+02
0.318750693357998E+02
0.323709103734713E+02
0.328664982423563E+02
0.333566156997607E+02
0.338356875850740E+02
0.342978510767194E+02
0.347370519507151E+02
0.351471658866663E+02
0.355221418074113E+02
0.358561621417570E+02
0.361438129756749E+02
0.363802555232582E+02
0.365613894020454E+02
0.366839979878972E+02
0.367458667312463E+02
0.305311399851642E+02
0.310204713027374E+02
0.315186883751842E+02
0.320213446024187E+02
0.325235687474194E+02
0.330200873741973E+02
0.335052700897831E+02
0.339732000076364E+02
0.344177703454557E+02
0.348328062138035E+02
0.352122085770069E+02
0.355501152552504E+02
0.358410718980762E+02
0.360802043134481E+02
0.362633825818645E+02
0.363873671726340E+02
0.364499278886341E+02
0.301078883980416E+02
0.306053523495061E+02
0.311116214850274E+02
0.316221823670846E+02
0.321320980905377E+02
0.326360307214602E+02
0.331282866218296E+02
0.336028871189916E+02
0.340536654618765E+02
0.344743891335464E+02
0.348589044968538E+02
0.352012986191522E+02
0.354960711663330E+02
0.357383076965181E+02
0.359238447198189E+02
0.360494166747374E+02
0.361127755839182E+02
0.296380209723179E+02
0.301446840783679E+02
0.306600530193933E+02
0.311795393072450E+02
0.316981325625976E+02
0.322104229187692E+02
0.327106463991116E+02
0.331927557751816E+02
0.336505178816748E+02
0.340776364737212E+02
0.344678975991058E+02
0.348153323064678E+02
0.351143895357111E+02
0.353601104612523E+02
0.355482945843734E+02
0.356756476511718E+02
0.357399020879309E+02
0.291282351893816E+02
0.296450922468499E+02
0.301705347560218E+02
0.306998917636304E+02
0.312280724884952E+02
0.317495886407763E+02
0.322585998061369E+02
0.327489844572320E+02
0.332144376077031E+02
0.336485942134168E+02
0.340451752901685E+02
0.343981515426531E+02
0.347019173035021E+02
0.349514659882799E+02
0.351425572864264E+02
0.352718660839557E+02
0.353371037324846E+02
0.285854324851807E+02
0.291134006695216E+02
0.296498106504346E+02
0.301899024510030E+02
0.307284988955301E+02
0.312600277804195E+02
0.317785672027255E+02
0.322779166710466E+02
0.327516950585028E+02
0.331934645250496E+02
0.335968773762724E+02
0.339558406263950E+02
0.342646910141896E+02
0.345183716087632E+02
0.347126001437393E+02
0.348440189893384E+02
0.349103172942294E+02
0.280165571827793E+02
0.285564706144108E+02
0.291046568136678E+02
0.296562611230249E+02
0.302060149558204E+02
0.307482577406212E+02
0.312769821153900E+02
0.317859050655302E+02
0.322685661156114E+02
0.327184517281481E+02
0.331291428761243E+02
0.334944805296329E+02
0.338087417532158E+02
0.340668174786195E+02
0.342643820057594E+02
0.343980440504381E+02
0.344654697834540E+02
0.274284576507480E+02
0.279810621325564E+02
0.285417431410516E+02
0.291055466179764E+02
0.296671085523653E+02
0.302206766064297E+02
0.307601550809123E+02
0.312791759905826E+02
0.317711974153313E+02
0.322296283101466E+02
0.326479767421409E+02
0.330200162678310E+02
0.333399630938106E+02
0.336026550107305E+02
0.338037220643127E+02
0.339397386872716E+02
0.340083476459152E+02
0.268277738469848E+02
0.273937214792736E+02
0.279675207468851E+02
0.285441144338459E+02
0.291180401085599E+02
0.296834513265985E+02
0.302341622585872E+02
0.307637185976442E+02
0.312654959730936E+02
0.317328250875408E+02
0.321591405491544E+02
0.325381480857943E+02
0.328640027299492E+02
0.331314888878114E+02
0.333361921646759E+02
0.334746525730635E+02
0.335444893837201E+02
0.262208529974006E+02
0.268006964111908E+02
0.273881370198508E+02
0.279780116744931E+02
0.285647575458376E+02
0.291424327885072E+02
0.297047607107576E+02
0.302452003949427E+02
0.307570450622399E+02
0.312335474364614E+02
0.316680690848376E+02
0.320542483968263E+02
0.323861797355334E+02
0.326585945974195E+02
0.328670345592732E+02
0.330080055394582E+02
0.330791035380314E+02
0.256136929040982E+02
0.262078789223738E+02
0.268093779260443E+02
0.274129190519699E+02
0.280128381072796E+02
0.286030975716034E+02
0.291773301788679E+02
0.297289091216137E+02
0.302510462435123E+02
0.307369175165086E+02
0.311798127889894E+02
0.315733044416993E+02
0.319114274319069E+02
0.321888614834066E+02
0.324011051072602E+02
0.325446308797757E+02
0.326170120456492E+02
0.250119104606952E+02
0.256207730953509E+02
0.262366353271777E+02
0.268541177975340E+02
0.274674549777654E+02
0.280705143809936E+02
0.286568394208020E+02
0.292197190638353E+02
0.297522857191740E+02
0.302476407061950E+02
0.306990042983076E+02
0.310998849564308E+02
0.314442601793388E+02
0.317267596505486E+02
0.319428402724193E+02
0.320889424131373E+02
0.321626173374769E+02
0.317505412739877E+02
0.322172008756343E+02
0.326929355508776E+02
0.331734873472786E+02
0.336541715147882E+02
0.341298987900109E+02
0.345952202343345E+02
0.350443969332118E+02
0.354714953939088E+02
0.358705076663195E+02
0.362354931861905E+02
0.365607372786605E+02
0.368409193688410E+02
0.370712824390372E+02
0.372477943434216E+02
0.373672913880939E+02
0.374275951850765E+02
0.316411982540137E+02
0.321098472154936E+02
0.325875566849744E+02
0.330700520243830E+02
0.335526319235377E+02
0.340301907065263E+02
0.344972632152263E+02
0.349480945865918E+02
0.353767357673653E+02
0.357771637933154E+02
0.361434238304903E+02
0.364697879100411E+02
0.367509233928065E+02
0.369820626892942E+02
0.371591648296277E+02
0.372790592743273E+02
0.373395629581904E+02
0.314610373256368E+02
0.319329822286239E+02
0.324139626501583E+02
0.328996763626216E+02
0.333853947011591E+02
0.338659849031204E+02
0.343359550626357E+02
0.347895240325623E+02
0.352207171280899E+02
0.356234866633751E+02
0.359918543157426E+02
0.363200702386137E+02
0.366027819420332E+02
0.368352044434318E+02
0.370132822564274E+02
0.371338335803963E+02
0.371946676562257E+02
0.312130934574806E+02
0.316896119558487E+02
0.321751295138300E+02
0.326653057342322E+02
0.331553741644524E+02
0.336401646743148E+02
0.341141485006012E+02
0.345715083124472E+02
0.350062341669042E+02
0.354122443922144E+02
0.357835283894882E+02
0.361143062597850E+02
0.363991982517051E+02
0.366333955005074E+02
0.368128225897014E+02
0.369342822590861E+02
0.369955731876437E+02
0.309014590006636E+02
0.313837893099697E+02
0.318750693357998E+02
0.323709103734713E+02
0.328664982423563E+02
0.333566156997607E+02
0.338356875850740E+02
0.342978510767194E+02
0.347370519507151E+02
0.351471658866663E+02
0.355221418074113E+02
0.358561621417570E+02
0.361438129756749E+02
0.363802555232582E+02
0.365613894020454E+02
0.366839979878972E+02
0.367458667312463E+02
0.305311399851642E+02
0.310204713027374E+02
0.315186883751842E+02
0.320213446024187E+02
0.325235687474194E+02
0.330200873741973E+02
0.335052700897831E+02
0.339732000076364E+02
0.344177703454557E+02
0.348328062138035E+02
0.352122085770069E+02
0.355501152552504E+02
0.358410718980762E+02
0.360802043134481E+02
0.362633825818645E+02
0.363873671726340E+02
0.364499278886341E+02
0.301078883980416E+02
0.306053523495061E+02
0.311116214850274E+02
0.316221823670846E+02
0.321320980905377E+02
0.326360307214602E+02
0.331282866218296E+02
0.336028871189916E+02
0.340536654618765E+02
0.344743891335464E+02
0.348589044968538E+02
0.352012986191522E+02
0.354960711663330E+02
0.357383076965181E+02
0.359238447198189E+02
0.360494166747374E+02
0.361127755839182E+02
0.296380209723179E+02
0.301446840783679E+02
0.306600530193933E+02
0.311795393072450E+02
0.316981325625976E+02
0.322104229187692E+02
0.327106463991116E+02
0.331927557751816E+02
0.336505178816748E+02
0.340776364737212E+02
0.344678975991058E+02
0.348153323064678E+02
0.351143895357111E+02
0.353601104612523E+02
0.355482945843734E+02
0.356756476511718E+02
0.357399020879309E+02
0.291282351893816E+02
0.296450922468499E+02
0.301705347560218E+02
0.306998917636304E+02
0.312280724884952E+02
0.317495886407763E+02
0.322585998061369E+02
0.327489844572320E+02
0.332144376077031E+02
0.336485942134168E+02
0.340451752901685E+02
0.343981515426531E+02
0.347019173035021E+02
0.349514659882799E+02
0.351425572864264E+02
0.352718660839557E+02
0.353371037324846E+02
0.285854324851807E+02
0.291134006695216E+02
0.296498106504346E+02
0.301899024510030E+02
0.307284988955301E+02
0.312600277804195E+02
0.317785672027255E+02
0.322779166710466E+02
0.327516950585028E+02
0.331934645250496E+02
0.335968773762724E+02
0.339558406263950E+02
0.342646910141896E+02
0.345183716087632E+02
0.347126001437393E+02
0.348440189893384E+02
0.349103172942294E+02
0.280165571827793E+02
0.285564706144108E+02
0.291046568136678E+02
0.296562611230249E+02
0.302060149558204E+02
0.307482577406212E+02
0.312769821153900E+02
0.317859050655302E+02
0.322685661156114E+02
0.327184517281481E+02
0.331291428761243E+02
0.334944805296329E+02
0.338087417532158E+02
0.340668174786195E+02
0.342643820057594E+02
0.343980440504381E+02
0.344654697834540E+02
0.274284576507480E+02
0.279810621325564E+02
0.285417431410516E+02
0.291055466179764E+02
0.296671085523653E+02
0.302206766064297E+02
0.307601550809123E+02
0.312791759905826E+02
0.317711974153313E+02
0.322296283101466E+02
0.326479767421409E+02
0.330200162678310E+02
0.333399630938106E+02
0.336026550107305E+02
0.338037220643127E+02
0.339397386872716E+02
0.340083476459152E+02
0.268277738469848E+02
0.273937214792736E+02
0.279675207468851E+02
0.285441144338459E+02
0.291180401085599E+02
0.296834513265985E+02
0.302341622585872E+02
0.307637185976442E+02
0.312654959730936E+02
0.317328250875408E+02
0.321591405491544E+02
0.325381480857943E+02
0.328640027299492E+02
0.331314888878114E+02
0.333361921646759E+02
0.334746525730635E+02
0.335444893837201E+02
0.262208529974006E+02
0.268006964111908E+02
0.273881370198508E+02
0.279780116744931E+02
0.285647575458376E+02
0.291424327885072E+02
0.297047607107576E+02
0.302452003949427E+02
0.307570450622399E+02
0.312335474364614E+02
0.316680690848376E+02
0.320542483968263E+02
0.323861797355334E+02
0.326585945974195E+02
0.328670345592732E+02
0.330080055394582E+02
0.330791035380314E+02
0.256136929040982E+02
0.262078789223738E+02
0.268093779260443E+02
0.274129190519699E+02
0.280128381072796E+02
0.286030975716034E+02
0.291773301788679E+02
0.297289091216137E+02
0.302510462435123E+02
0.307369175165086E+02
0.311798127889894E+02
0.315733044416993E+02
0.319114274319069E+02
0.321888614834066E+02
0.324011051072602E+02
0.325446308797757E+02
0.326170120456492E+02
0.250119104606952E+02
0.256207730953509E+02
0.262366353271777E+02
0.268541177975340E+02
0.274674549777654E+02
0.280705143809936E+02
0.286568394208020E+02
0.292197190638353E+02
0.297522857191740E+02
0.302476407061950E+02
0.306990042983076E+02
0.310998849564308E+02
0.314442601793388E+02
0.317267596505486E+02
0.319428402724193E+02
0.320889424131373E+02
0.321626173374769E+02
0.317505412739877E+02
0.322172008756343E+02
0.326929355508776E+02
0.331734873472786E+02
0.336541715147882E+02
0.341298987900109E+02
0.345952202343345E+02
0.350443969332118E+02
0.354714953939088E+02
0.358705076663195E+02
0.362354931861905E+02
0.365607372786605E+02
0.368409193688410E+02
0.370712824390372E+02
0.372477943434216E+02
0.373672913880939E+02
0.374275951850765E+02
0.316411982540137E+02
0.321098472154936E+02
0.325875566849744E+02
0.330700520243830E+02
0.335526319235377E+02
0.340301907065263E+02
0.344972632152263E+02
0.349480945865918E+02
0.353767357673653E+02
0.357771637933154E+02
0.361434238304903E+02
0.364697879100411E+02
0.367509233928065E+02
0.369820626892942E+02
0.371591648296277E+02
0.372790592743273E+02
0.373395629581904E+02
0.314610373256368E+02
0.319329822286239E+02
0.324139626501583E+02
0.328996763626216E+02
0.333853947011591E+02
0.338659849031204E+02
0.343359550626357E+02
0.347895240325623E+02
0.352207171280899E+02
0.356234866633751E+02
0.359918543157426E+02
0.363200702386137E+02
0.366027819420332E+02
0.368352044434318E+02
0.370132822564274E+02
0.371338335803963E+02
0.371946676562257E+02
0.312130934574806E+02
0.316896119558487E+02
0.321751295138300E+02
0.326653057342322E+02
0.331553741644524E+02
0.336401646743148E+02
0.341141485006012E+02
0.345715083124472E+02
0.350062341669042E+02
0.354122443922144E+02
0.357835283894882E+02
0.361143062597850E+02
0.363991982517051E+02
0.366333955005074E+02
0.368128225897014E+02
0.369342822590861E+02
0.369955731876437E+02
0.309014590006636E+02
0.313837893099697E+02
0.318750693357998E+02
0.323709103734713E+02
0.328664982423563E+02
0.333566156997607E+02
0.338356875850740E+02
0.342978510767194E+02
0.347370519507151E+02
0.351471658866663E+02
0.355221418074113E+02
0.358561621417570E+02
0.361438129756749E+02
0.363802555232582E+02
0.365613894020454E+02
0.366839979878972E+02
0.367458667312463E+02
0.305311399851642E+02
0.310204713027374E+02
0.315186883751842E+02
0.320213446024187E+02
0.325235687474194E+02
0.330200873741973E+02
0.335052700897831E+02
0.339732000076364E+02
0.344177703454557E+02
0.348328062138035E+02
0.352122085770069E+02
0.355501152552504E+02
0.358410718980762E+02
0.360802043134481E+02
0.362633825818645E+02
0.363873671726340E+02
0.364499278886341E+02
0.301078883980416E+02
0.306053523495061E+02
0.311116214850274E+02
0.316221823670846E+02
0.321320980905377E+02
0.326360307214602E+02
0.331282866218296E+02
0.336028871189916E+02
0.340536654618765E+02
0.344743891335464E+02
0.348589044968538E+02
0.352012986191522E+02
0.354960711663330E+02
0.357383076965181E+02
0.359238447198189E+02
0.360494166747374E+02
0.361127755839182E+02
0.296380209723179E+02
0.301446840783679E+02
0.306600530193933E+02
0.311795393072450E+02
0.316981325625976E+02
0.322104229187692E+02
0.327106463991116E+02
0.331927557751816E+02
0.336505178816748E+02
0.340776364737212E+02
0.344678975991058E+02
0.348153323064678E+02
0.351143895357111E+02
0.353601104612523E+02
0.355482945843734E+02
0.356756476511718E+02
0.357399020879309E+02
0.291282351893816E+02
0.296450922468499E+02
0.301705347560218E+02
0.306998917636304E+02
0.312280724884952E+02
0.317495886407763E+02
0.322585998061369E+02
0.327489844572320E+02
0.332144376077031E+02
0.336485942134168E+02
0.340451752901685E+02
0.343981515426531E+02
0.347019173035021E+02
0.349514659882799E+02
0.351425572864264E+02
0.352718660839557E+02
0.353371037324846E+02
0.285854324851807E+02
0.291134006695216E+02
0.296498106504346E+02
0.301899024510030E+02
0.307284988955301E+02
0.312600277804195E+02
0.317785672027255E+02
0.322779166710466E+02
0.327516950585028E+02
0.331934645250496E+02
0.335968773762724E+02
0.339558406263950E+02
0.342646910141896E+02
0.345183716087632E+02
0.347126001437393E+02
0.348440189893384E+02
0.349103172942294E+02
0.280165571827793E+02
0.285564706144108E+02
0.291046568136678E+02
0.296562611230249E+02
0.302060149558204E+02
0.307482577406212E+02
0.312769821153900E+02
0.317859050655302E+02
0.322685661156114E+02
0.327184517281481E+02
0.331291428761243E+02
0.334944805296329E+02
0.338087417532158E+02
0.340668174786195E+02
0.342643820057594E+02
0.343980440504381E+02
0.344654697834540E+02
0.274284576507480E+02
0.279810621325564E+02
0.285417431410516E+02
0.291055466179764E+02
0.296671085523653E+02
0.302206766064297E+02
0.307601550809123E+02
0.312791759905826E+02
0.317711974153313E+02
0.322296283101466E+02
0.326479767421409E+02
0.330200162678310E+02
0.333399630938106E+02
0.336026550107305E+02
0.338037220643127E+02
0.339397386872716E+02
0.340083476459152E+02
0.268277738469848E+02
0.273937214792736E+02
0.279675207468851E+02
0.285441144338459E+02
0.291180401085599E+02
0.296834513265985E+02
0.302341622585872E+02
0.307637185976442E+02
0.312654959730936E+02
0.317328250875408E+02
0.321591405491544E+02
0.325381480857943E+02
0.328640027299492E+02
0.331314888878114E+02
0.333361921646759E+02
0.334746525730635E+02
0.335444893837201E+02
0.262208529974006E+02
0.268006964111908E+02
0.273881370198508E+02
0.279780116744931E+02
0.285647575458376E+02
0.291424327885072E+02
0.297047607107576E+02
0.302452003949427E+02
0.307570450622399E+02
0.312335474364614E+02
0.316680690848376E+02
0.320542483968263E+02
0.323861797355334E+02
0.326585945974195E+02
0.328670345592732E+02
0.330080055394582E+02
0.330791035380314E+02
0.256136929040982E+02
0.262078789223738E+02
0.268093779260443E+02
0.274129190519699E+02
0.280128381072796E+02
0.286030975716034E+02
0.291773301788679E+02
0.297289091216137E+02
0.302510462435123E+02
0.307369175165086E+02
0.311798127889894E+02
0.315733044416993E+02
0.319114274319069E+02
0.321888614834066E+02
0.324011051072602E+02
0.325446308797757E+02
0.326170120456492E+02
0.250119104606952E+02
0.256207730953509E+02
0.262366353271777E+02
0.268541177975340E+02
0.274674549777654E+02
0.280705143809936E+02
0.286568394208020E+02
0.292197190638353E+02
0.297522857191740E+02
0.302476407061950E+02
0.306990042983076E+02
0.310998849564308E+02
0.314442601793388E+02
0.317267596505486E+02
0.319428402724193E+02
0.320889424131373E+02
0.321626173374769E+02
0.317505412739877E+02
0.322172008756343E+02
0.326929355508776E+02
0.331734873472786E+02
0.336541715147882E+02
0.341298987900109E+02
0.345952202343345E+02
0.350443969332118E+02
0.354714953939088E+02
0.358705076663195E+02
0.362354931861905E+02
0.365607372786605E+02
0.368409193688410E+02
0.370712824390372E+02
0.372477943434216E+02
0.373672913880939E+02
0.374275951850765E+02
0.316411982540137E+02
0.321098472154936E+02
0.325875566849744E+02
0.330700520243830E+02
0.335526319235377E+02
0.340301907065263E+02
0.344972632152263E+02
0.349480945865918E+02
0.353767357673653E+02
0.357771637933154E+02
0.361434238304903E+02
0.364697879100411E+02
0.367509233928065E+02
0.369820626892942E+02
0.371591648296277E+02
0.372790592743273E+02
0.373395629581904E+02
0.314610373256368E+02
0.319329822286239E+02
0.324139626501583E+02
0.328996763626216E+02
0.333853947011591E+02
0.338659849031204E+02
0.343359550626357E+02
0.347895240325623E+02
0.352207171280899E+02
0.356234866633751E+02
0.359918543157426E+02
0.363200702386137E+02
0.366027819420332E+02
0.368352044434318E+02
0.370132822564274E+02
0.371338335803963E+02
0.371946676562257E+02
0.312130934574806E+02
0.316896119558487E+02
0.321751295138300E+02
0.326653057342322E+02
0.331553741644524E+02
0.336401646743148E+02
0.341141485006012E+02
0.345715083124472E+02
0.350062341669042E+02
0.354122443922144E+02
0.357835283894882E+02
0.361143062597850E+02
0.363991982517051E+02
0.366333955005074E+02
0.368128225897014E+02
0.369342822590861E+02
0.369955731876437E+02
0.309014590006636E+02
0.313837893099697E+02
0.318750693357998E+02
0.323709103734713E+02
0.328664982423563E+02
0.333566156997607E+02
0.338356875850740E+02
0.342978510767194E+02
0.347370519507151E+02
0.351471658866663E+02
0.355221418074113E+02
0.358561621417570E+02
0.361438129756749E+02
0.363802555232582E+02
0.365613894020454E+02
0.366839979878972E+02
0.367458667312463E+02
0.305311399851642E+02
0.310204713027374E+02
0.315186883751842E+02
0.320213446024187E+02
0.325235687474194E+02
0.330200873741973E+02
0.335052700897831E+02
0.339732000076364E+02
0.344177703454557E+02
0.348328062138035E+02
0.352122085770069E+02
0.355501152552504E+02
0.358410718980762E+02
0.360802043134481E+02
0.362633825818645E+02
0.363873671726340E+02
0.364499278886341E+02
0.301078883980416E+02
0.306053523495061E+02
0.311116214850274E+02
0.316221823670846E+02
0.321320980905377E+02
0.326360307214602E+02
0.331282866218296E+02
0.336028871189916E+02
0.340536654618765E+02
0.344743891335464E+02
0.348589044968538E+02
0.352012986191522E+02
0.354960711663330E+02
0.357383076965181E+02
0.359238447198189E+02
0.360494166747374E+02
0.361127755839182E+02
0.296380209723179E+02
0.301446840783679E+02
0.306600530193933E+02
0.311795393072450E+02
0.316981325625976E+02
0.322104229187692E+02
0.327106463991116E+02
0.331927557751816E+02
0.336505178816748E+02
0.340776364737212E+02
0.344678975991058E+02
0.348153323064678E+02
0.351143895357111E+02
0.353601104612523E+02
0.355482945843734E+02
0.356756476511718E+02
0.357399020879309E+02
0.291282351893816E+02
0.296450922468499E+02
0.301705347560218E+02
0.306998917636304E+02
0.312280724884952E+02
0.317495886407763E+02
0.322585998061369E+02
0.327489844572320E+02
0.332144376077031E+02
0.336485942134168E+02
0.340451752901685E+02
0.343981515426531E+02
0.347019173035021E+02
0.349514659882799E+02
0.351425572864264E+02
0.352718660839557E+02
0.353371037324846E+02
0.285854324851807E+02
0.291134006695216E+02
0.296498106504346E+02
0.301899024510030E+02
0.307284988955301E+02
0.312600277804195E+02
0.317785672027255E+02
0.322779166710466E+02
0.327516950585028E+02
0.331934645250496E+02
0.335968773762724E+02
0.339558406263950E+02
0.342646910141896E+02
0.345183716087632E+02
0.347126001437393E+02
0.348440189893384E+02
0.349103172942294E+02
0.280165571827793E+02
0.285564706144108E+02
0.291046568136678E+02
0.296562611230249E+02
0.302060149558204E+02
0.307482577406212E+02
0.312769821153900E+02
0.317859050655302E+02
0.322685661156114E+02
0.327184517281481E+02
0.331291428761243E+02
0.334944805296329E+02
0.338087417532158E+02
0.340668174786195E+02
0.342643820057594E+02
0.343980440504381E+02
0.344654697834540E+02
0.274284576507480E+02
0.279810621325564E+02
0.285417431410516E+02
0.291055466179764E+02
0.296671085523653E+02
0.302206766064297E+02
0.307601550809123E+02
0.312791759905826E+02
0.317711974153313E+02
0.322296283101466E+02
0.326479767421409E+02
0.330200162678310E+02
0.333399630938106E+02
0.336026550107305E+02
0.338037220643127E+02
0.339397386872716E+02
0.340083476459152E+02
0.268277738469848E+02
0.273937214792736E+02
0.279675207468851E+02
0.285441144338459E+02
0.291180401085599E+02
0.296834513265985E+02
0.302341622585872E+02
0.307637185976442E+02
0.312654959730936E+02
0.317328250875408E+02
0.321591405491544E+02
0.325381480857943E+02
0.328640027299492E+02
0.331314888878114E+02
0.333361921646759E+02
0.334746525730635E+02
0.335444893837201E+02
0.262208529974006E+02
0.268006964111908E+02
0.273881370198508E+02
0.279780116744931E+02
0.285647575458376E+02
0.291424327885072E+02
0.297047607107576E+02
0.302452003949427E+02
0.307570450622399E+02
0.312335474364614E+02
0.316680690848376E+02
0.320542483968263E+02
0.323861797355334E+02
0.326585945974195E+02
0.328670345592732E+02
0.330080055394582E+02
0.330791035380314E+02
0.256136929040982E+02
0.262078789223738E+02
0.268093779260443E+02
0.274129190519699E+02
0.280128381072796E+02
0.286030975716034E+02
0.291773301788679E+02
0.297289091216137E+02
0.302510462435123E+02
0.307369175165086E+02
0.311798127889894E+02
0.315733044416993E+02
0.319114274319069E+02
0.321888614834066E+02
0.324011051072602E+02
0.325446308797757E+02
0.326170120456492E+02
0.250119104606952E+02
0.256207730953509E+02
0.262366353271777E+02
0.268541177975340E+02
0.274674549777654E+02
0.280705143809936E+02
0.286568394208020E+02
0.292197190638353E+02
0.297522857191740E+02
0.302476407061950E+02
0.306990042983076E+02
0.310998849564308E+02
0.314442601793388E+02
0.317267596505486E+02
0.319428402724193E+02
0.320889424131373E+02
0.321626173374769E+02
</DataArray>
</PointData>
</Piece>
</RectilinearGrid>
</VTKFile>
