<?xml version="1.0"?>
<VTKFile type="RectilinearGrid" version="0.1" byte_order="LittleEndian">
<RectilinearGrid WholeExtent="0   63    0   63    0    3">
<Piece Extent="47   63    0   15    0    3">
<Coordinates>
<DataArray Name="x" type="Float32" format="ascii">
0.470000000000000E+01
0.480000000000000E+01
0.490000000000000E+01
0.500000000000000E+01
0.510000000000000E+01
0.520000000000000E+01
0.530000000000000E+01
0.540000000000000E+01
0.550000000000000E+01
0.560000000000000E+01
0.570000000000000E+01
0.580000000000000E+01
0.590000000000000E+01
0.600000000000000E+01
0.610000000000000E+01
0.620000000000000E+01
0.630000000000000E+01
</DataArray>
<DataArray Name="y" type="Float32" format="ascii">
0.000000000000000E+00
0.100000000000000E+00
0.200000000000000E+00
0.300000000000000E+00
0.400000000000000E+00
0.500000000000000E+00
0.600000000000000E+00
0.700000000000000E+00
0.800000000000000E+00
0.900000000000000E+00
0.100000000000000E+01
0.110000000000000E+01
0.120000000000000E+01
0.130000000000000E+01
0.140000000000000E+01
0.150000000000000E+01
</DataArray>
<DataArray Name="z" type="Float32" format="ascii">
0.000000000000000E+00
0.100000000000000E+00
0.200000000000000E+00
0.300000000000000E+00
</DataArray>
</Coordinates>
<PointData Scalars="c">
<DataArray type="Float32" Name="c" format="ascii">
0.310838925037149E+02
0.315183022323139E+02
0.319575066396771E+02
0.323973564868196E+02
0.328334638301844E+02
0.332612439336012E+02
0.336759695329672E+02
0.340728372519767E+02
0.344470452405791E+02
0.347938803428571E+02
0.351088123524628E+02
0.353875922414811E+02
0.356263507122168E+02
0.358216930744870E+02
0.359707863353081E+02
0.360714345284077E+02
0.361221387124976E+02
0.309930104875341E+02
0.314290435133131E+02
0.318698543367950E+02
0.323112795482280E+02
0.327489173929454E+02
0.331781697539001E+02
0.335942964884962E+02
0.339924819209876E+02
0.343679125640507E+02
0.347158643769241E+02
0.350317971176270E+02
0.353114526731978E+02
0.355509537143705E+02
0.357468986732998E+02
0.358964489267061E+02
0.359974042072189E+02
0.360482626674754E+02
0.308429593442579E+02
0.312816837002394E+02
0.317251574626400E+02
0.321691937514524E+02
0.326093679513652E+02
0.330410598096461E+02
0.334595078905879E+02
0.338598761927434E+02
0.342373320058421E+02
0.345871333160232E+02
0.349047233159416E+02
0.351858289005715E+02
0.354265594900932E+02
0.356235021719558E+02
0.357738090370638E+02
0.358752727251948E+02
0.359263865970004E+02
0.306358279429242E+02
0.310782905677023E+02
0.315254623277002E+02
0.319731237924909E+02
0.324168186706654E+02
0.328518960644918E+02
0.332735650835615E+02
0.336769616307122E+02
0.340572264418479E+02
0.344095926901975E+02
0.347294807104074E+02
0.350125967191251E+02
0.352550318666195E+02
0.354533576026210E+02
0.356047132211346E+02
0.357068815887959E+02
0.357583494641952E+02
0.303744638645499E+02
0.308216824568278E+02
0.312735575446124E+02
0.317258283696574E+02
0.321739984714124E+02
0.326133781353286E+02
0.330391392020333E+02
0.334463820599306E+02
0.338302139091638E+02
0.341858366101933E+02
0.345086416711949E+02
0.347943092459003E+02
0.350389074679829E+02
0.352389880940606E+02
0.353916743073147E+02
0.354947366730635E+02
0.355466536412392E+02
0.300624012557593E+02
0.305153563899250E+02
0.309729024323765E+02
0.314307289018580E+02
0.318842910813795E+02
0.323288526914061E+02
0.327595409244002E+02
0.331714136748791E+02
0.335595380609803E+02
0.339190785544947E+02
0.342453922725555E+02
0.345341282969389E+02
0.347813273372622E+02
0.349835176971014E+02
0.351378033799445E+02
0.352419403106294E+02
0.352943970523844E+02
0.297037743769671E+02
0.301634019137949E+02
0.306275411907235E+02
0.310918240652053E+02
0.315516499596002E+02
0.320022287839396E+02
0.324386362181578E+02
0.328558812020515E+02
0.332489847389295E+02
0.336130683348229E+02
0.339434496258418E+02
0.342357420535876E+02
0.344859548940074E+02
0.346905895839940E+02
0.348467281655306E+02
0.349521098051338E+02
0.350051917517689E+02
0.293032209308332E+02
0.297704047338877E+02
0.302420068826995E+02
0.307135941614839E+02
0.311805030814374E+02
0.316378830704932E+02
0.320807520172569E+02
0.325040640341207E+02
0.329027885575947E+02
0.332719991140602E+02
0.336069693035976E+02
0.339032728556598E+02
0.341568840502917E+02
0.343642744331349E+02
0.345225016251647E+02
0.346292861651152E+02
0.346830727289548E+02
0.288657795219567E+02
0.293413444683107E+02
0.298212195316201E+02
0.303008996011382E+02
0.307756518434856E+02
0.312405591690351E+02
0.316905760427329E+02
0.321205965238767E+02
0.325255336672640E+02
0.329004086219015E+02
0.332404469809263E+02
0.335411792305756E+02
0.337985415797518E+02
0.340089730813450E+02
0.341695048260022E+02
0.342778371249065E+02
0.343324010055308E+02
0.283967855726573E+02
0.288814908290648E+02
0.293703826211535E+02
0.298588777699743E+02
0.303421683372419E+02
0.308152653699479E+02
0.312730549741699E+02
0.317103666250586E+02
0.321220528622543E+02
0.325030787167874E+02
0.328486184252994E+02
0.331541562739877E+02
0.334155878415261E+02
0.336293175343680E+02
0.337923481738025E+02
0.339023585286591E+02
0.339577650959277E+02
0.279017697206841E+02
0.283963022460243E+02
0.288948820022477E+02
0.293928422701880E+02
0.298852949679767E+02
0.303671746674240E+02
0.308332949179170E+02
0.312784168103097E+02
0.316973289495288E+02
0.320849371938795E+02
0.324363617205119E+02
0.327470382548033E+02
0.330128197207858E+02
0.332300741879347E+02
0.333957748516448E+02
0.335075779176765E+02
0.335638846701295E+02
0.273863621927445E+02
0.278913304263985E+02
0.284001906966840E+02
0.289081880208529E+02
0.294103498977512E+02
0.299015305817081E+02
0.303764676349956E+02
0.308298507199416E+02
0.312564018216380E+02
0.316509652733940E+02
0.320086051496782E+02
0.323247068606946E+02
0.325950791940864E+02
0.328160526609679E+02
0.329845698611861E+02
0.330982637138487E+02
0.331555198092500E+02
0.268562059393353E+02
0.273721336443911E+02
0.278917823990720E+02
0.284103050246784E+02
0.289226411224030E+02
0.294235615831861E+02
0.299077253392754E+02
0.303697483503234E+02
0.308042840399956E+02
0.312061135717721E+02
0.315702435357908E+02
0.318920078785567E+02
0.321671703101126E+02
0.323920230280567E+02
0.325634774508038E+02
0.326791427815723E+02
0.327373886353538E+02
0.263168804983394E+02
0.268442007483695E+02
0.273750556820018E+02
0.279045028206810E+02
0.284273912146292E+02
0.289384061606177E+02
0.294321261162250E+02
0.299030918382682E+02
0.303458869892386E+02
0.307552286193839E+02
0.311260651053539E+02
0.314536783763712E+02
0.317337866526174E+02
0.319626435179657E+02
0.321371289971812E+02
0.322548284344854E+02
0.323140953817073E+02
0.257738376977011E+02
0.263128870254692E+02
0.268552700712100E+02
0.273959468137690E+02
0.279296739455014E+02
0.284510497644182E+02
0.289545712090719E+02
0.294347031017068E+02
0.298859588741340E+02
0.303029912053628E+02
0.306806901630016E+02
0.310142856801279E+02
0.312994505835973E+02
0.315323999794708E+02
0.317099826438989E+02
0.318297601920227E+02
0.318900702091604E+02
0.252323494787349E+02
0.257833622426969E+02
0.263374943444968E+02
0.268896068666572E+02
0.274343631984382E+02
0.279662740645601E+02
0.284797546344829E+02
0.289691938184087E+02
0.294290350577178E+02
0.298538670626205E+02
0.302385221021657E+02
0.305781786807218E+02
0.308684648095055E+02
0.311055576634006E+02
0.312862752503394E+02
0.314081558419735E+02
0.314695213262655E+02
0.310838925037149E+02
0.315183022323139E+02
0.319575066396771E+02
0.323973564868196E+02
0.328334638301844E+02
0.332612439336012E+02
0.336759695329672E+02
0.340728372519767E+02
0.344470452405791E+02
0.347938803428571E+02
0.351088123524628E+02
0.353875922414811E+02
0.356263507122168E+02
0.358216930744870E+02
0.359707863353081E+02
0.360714345284077E+02
0.361221387124976E+02
0.309930104875341E+02
0.314290435133131E+02
0.318698543367950E+02
0.323112795482280E+02
0.327489173929454E+02
0.331781697539001E+02
0.335942964884962E+02
0.339924819209876E+02
0.343679125640507E+02
0.347158643769241E+02
0.350317971176270E+02
0.353114526731978E+02
0.355509537143705E+02
0.357468986732998E+02
0.358964489267061E+02
0.359974042072189E+02
0.360482626674754E+02
0.308429593442579E+02
0.312816837002394E+02
0.317251574626400E+02
0.321691937514524E+02
0.326093679513652E+02
0.330410598096461E+02
0.334595078905879E+02
0.338598761927434E+02
0.342373320058421E+02
0.345871333160232E+02
0.349047233159416E+02
0.351858289005715E+02
0.354265594900932E+02
0.356235021719558E+02
0.357738090370638E+02
0.358752727251948E+02
0.359263865970004E+02
0.306358279429242E+02
0.310782905677023E+02
0.315254623277002E+02
0.319731237924909E+02
0.324168186706654E+02
0.328518960644918E+02
0.332735650835615E+02
0.336769616307122E+02
0.340572264418479E+02
0.344095926901975E+02
0.347294807104074E+02
0.350125967191251E+02
0.352550318666195E+02
0.354533576026210E+02
0.356047132211346E+02
0.357068815887959E+02
0.357583494641952E+02
0.303744638645499E+02
0.308216824568278E+02
0.312735575446124E+02
0.317258283696574E+02
0.321739984714124E+02
0.326133781353286E+02
0.330391392020333E+02
0.334463820599306E+02
0.338302139091638E+02
0.341858366101933E+02
0.345086416711949E+02
0.347943092459003E+02
0.350389074679829E+02
0.352389880940606E+02
0.353916743073147E+02
0.354947366730635E+02
0.355466536412392E+02
0.300624012557593E+02
0.305153563899250E+02
0.309729024323765E+02
0.314307289018580E+02
0.318842910813795E+02
0.323288526914061E+02
0.327595409244002E+02
0.331714136748791E+02
0.335595380609803E+02
0.339190785544947E+02
0.342453922725555E+02
0.345341282969389E+02
0.347813273372622E+02
0.349835176971014E+02
0.351378033799445E+02
0.352419403106294E+02
0.352943970523844E+02
0.297037743769671E+02
0.301634019137949E+02
0.306275411907235E+02
0.310918240652053E+02
0.315516499596002E+02
0.320022287839396E+02
0.324386362181578E+02
0.328558812020515E+02
0.332489847389295E+02
0.336130683348229E+02
0.339434496258418E+02
0.342357420535876E+02
0.344859548940074E+02
0.346905895839940E+02
0.348467281655306E+02
0.349521098051338E+02
0.350051917517689E+02
0.293032209308332E+02
0.297704047338877E+02
0.302420068826995E+02
0.307135941614839E+02
0.311805030814374E+02
0.316378830704932E+02
0.320807520172569E+02
0.325040640341207E+02
0.329027885575947E+02
0.332719991140602E+02
0.336069693035976E+02
0.339032728556598E+02
0.341568840502917E+02
0.343642744331349E+02
0.345225016251647E+02
0.346292861651152E+02
0.346830727289548E+02
0.288657795219567E+02
0.293413444683107E+02
0.298212195316201E+02
0.303008996011382E+02
0.307756518434856E+02
0.312405591690351E+02
0.316905760427329E+02
0.321205965238767E+02
0.325255336672640E+02
0.329004086219015E+02
0.332404469809263E+02
0.335411792305756E+02
0.337985415797518E+02
0.340089730813450E+02
0.341695048260022E+02
0.342778371249065E+02
0.343324010055308E+02
0.283967855726573E+02
0.288814908290648E+02
0.293703826211535E+02
0.298588777699743E+02
0.303421683372419E+02
0.308152653699479E+02
0.312730549741699E+02
0.317103666250586E+02
0.321220528622543E+02
0.325030787167874E+02
0.328486184252994E+02
0.331541562739877E+02
0.334155878415261E+02
0.336293175343680E+02
0.337923481738025E+02
0.339023585286591E+02
0.339577650959277E+02
0.279017697206841E+02
0.283963022460243E+02
0.288948820022477E+02
0.293928422701880E+02
0.298852949679767E+02
0.303671746674240E+02
0.308332949179170E+02
0.312784168103097E+02
0.316973289495288E+02
0.320849371938795E+02
0.324363617205119E+02
0.327470382548033E+02
0.330128197207858E+02
0.332300741879347E+02
0.333957748516448E+02
0.335075779176765E+02
0.335638846701295E+02
0.273863621927445E+02
0.278913304263985E+02
0.284001906966840E+02
0.289081880208529E+02
0.294103498977512E+02
0.299015305817081E+02
0.303764676349956E+02
0.308298507199416E+02
0.312564018216380E+02
0.316509652733940E+02
0.320086051496782E+02
0.323247068606946E+02
0.325950791940864E+02
0.328160526609679E+02
0.329845698611861E+02
0.330982637138487E+02
0.331555198092500E+02
0.268562059393353E+02
0.273721336443911E+02
0.278917823990720E+02
0.284103050246784E+02
0.289226411224030E+02
0.294235615831861E+02
0.299077253392754E+02
0.303697483503234E+02
0.308042840399956E+02
0.312061135717721E+02
0.315702435357908E+02
0.318920078785567E+02
0.321671703101126E+02
0.323920230280567E+02
0.325634774508038E+02
0.326791427815723E+02
0.327373886353538E+02
0.263168804983394E+02
0.268442007483695E+02
0.273750556820018E+02
0.279045028206810E+02
0.284273912146292E+02
0.289384061606177E+02
0.294321261162250E+02
0.299030918382682E+02
0.303458869892386E+02
0.307552286193839E+02
0.311260651053539E+02
0.314536783763712E+02
0.317337866526174E+02
0.319626435179657E+02
0.321371289971812E+02
0.322548284344854E+02
0.323140953817073E+02
0.257738376977011E+02
0.263128870254692E+02
0.268552700712100E+02
0.273959468137690E+02
0.279296739455014E+02
0.284510497644182E+02
0.289545712090719E+02
0.294347031017068E+02
0.298859588741340E+02
0.303029912053628E+02
0.306806901630016E+02
0.310142856801279E+02
0.312994505835973E+02
0.315323999794708E+02
0.317099826438989E+02
0.318297601920227E+02
0.318900702091604E+02
0.252323494787349E+02
0.257833622426969E+02
0.263374943444968E+02
0.268896068666572E+02
0.274343631984382E+02
0.279662740645601E+02
0.284797546344829E+02
0.289691938184087E+02
0.294290350577178E+02
0.298538670626205E+02
0.302385221021657E+02
0.305781786807218E+02
0.308684648095055E+02
0.311055576634006E+02
0.312862752503394E+02
0.314081558419735E+02
0.314695213262655E+02
0.310838925037149E+02
0.315183022323139E+02
0.319575066396771E+02
0.323973564868196E+02
0.328334638301844E+02
0.332612439336012E+02
0.336759695329672E+02
0.340728372519767E+02
0.344470452405791E+02
0.347938803428571E+02
0.351088123524628E+02
0.353875922414811E+02
0.356263507122168E+02
0.358216930744870E+02
0.359707863353081E+02
0.360714345284077E+02
0.361221387124976E+02
0.309930104875341E+02
0.314290435133131E+02
0.318698543367950E+02
0.323112795482280E+02
0.327489173929454E+02
0.331781697539001E+02
0.335942964884962E+02
0.339924819209876E+02
0.343679125640507E+02
0.347158643769241E+02
0.350317971176270E+02
0.353114526731978E+02
0.355509537143705E+02
0.357468986732998E+02
0.358964489267061E+02
0.359974042072189E+02
0.360482626674754E+02
0.308429593442579E+02
0.312816837002394E+02
0.317251574626400E+02
0.321691937514524E+02
0.326093679513652E+02
0.330410598096461E+02
0.334595078905879E+02
0.338598761927434E+02
0.342373320058421E+02
0.345871333160232E+02
0.349047233159416E+02
0.351858289005715E+02
0.354265594900932E+02
0.356235021719558E+02
0.357738090370638E+02
0.358752727251948E+02
0.359263865970004E+02
0.306358279429242E+02
0.310782905677023E+02
0.315254623277002E+02
0.319731237924909E+02
0.324168186706654E+02
0.328518960644918E+02
0.332735650835615E+02
0.336769616307122E+02
0.340572264418479E+02
0.344095926901975E+02
0.347294807104074E+02
0.350125967191251E+02
0.352550318666195E+02
0.354533576026210E+02
0.356047132211346E+02
0.357068815887959E+02
0.357583494641952E+02
0.303744638645499E+02
0.308216824568278E+02
0.312735575446124E+02
0.317258283696574E+02
0.321739984714124E+02
0.326133781353286E+02
0.330391392020333E+02
0.334463820599306E+02
0.338302139091638E+02
0.341858366101933E+02
0.345086416711949E+02
0.347943092459003E+02
0.350389074679829E+02
0.352389880940606E+02
0.353916743073147E+02
0.354947366730635E+02
0.355466536412392E+02
0.300624012557593E+02
0.305153563899250E+02
0.309729024323765E+02
0.314307289018580E+02
0.318842910813795E+02
0.323288526914061E+02
0.327595409244002E+02
0.331714136748791E+02
0.335595380609803E+02
0.339190785544947E+02
0.342453922725555E+02
0.345341282969389E+02
0.347813273372622E+02
0.349835176971014E+02
0.351378033799445E+02
0.352419403106294E+02
0.352943970523844E+02
0.297037743769671E+02
0.301634019137949E+02
0.306275411907235E+02
0.310918240652053E+02
0.315516499596002E+02
0.320022287839396E+02
0.324386362181578E+02
0.328558812020515E+02
0.332489847389295E+02
0.336130683348229E+02
0.339434496258418E+02
0.342357420535876E+02
0.344859548940074E+02
0.346905895839940E+02
0.348467281655306E+02
0.349521098051338E+02
0.350051917517689E+02
0.293032209308332E+02
0.297704047338877E+02
0.302420068826995E+02
0.307135941614839E+02
0.311805030814374E+02
0.316378830704932E+02
0.320807520172569E+02
0.325040640341207E+02
0.329027885575947E+02
0.332719991140602E+02
0.336069693035976E+02
0.339032728556598E+02
0.341568840502917E+02
0.343642744331349E+02
0.345225016251647E+02
0.346292861651152E+02
0.346830727289548E+02
0.288657795219567E+02
0.293413444683107E+02
0.298212195316201E+02
0.303008996011382E+02
0.307756518434856E+02
0.312405591690351E+02
0.316905760427329E+02
0.321205965238767E+02
0.325255336672640E+02
0.329004086219015E+02
0.332404469809263E+02
0.335411792305756E+02
0.337985415797518E+02
0.340089730813450E+02
0.341695048260022E+02
0.342778371249065E+02
0.343324010055308E+02
0.283967855726573E+02
0.288814908290648E+02
0.293703826211535E+02
0.298588777699743E+02
0.303421683372419E+02
0.308152653699479E+02
0.312730549741699E+02
0.317103666250586E+02
0.321220528622543E+02
0.325030787167874E+02
0.328486184252994E+02
0.331541562739877E+02
0.334155878415261E+02
0.336293175343680E+02
0.337923481738025E+02
0.339023585286591E+02
0.339577650959277E+02
0.279017697206841E+02
0.283963022460243E+02
0.288948820022477E+02
0.293928422701880E+02
0.298852949679767E+02
0.303671746674240E+02
0.308332949179170E+02
0.312784168103097E+02
0.316973289495288E+02
0.320849371938795E+02
0.324363617205119E+02
0.327470382548033E+02
0.330128197207858E+02
0.332300741879347E+02
0.333957748516448E+02
0.335075779176765E+02
0.335638846701295E+02
0.273863621927445E+02
0.278913304263985E+02
0.284001906966840E+02
0.289081880208529E+02
0.294103498977512E+02
0.299015305817081E+02
0.303764676349956E+02
0.308298507199416E+02
0.312564018216380E+02
0.316509652733940E+02
0.320086051496782E+02
0.323247068606946E+02
0.325950791940864E+02
0.328160526609679E+02
0.329845698611861E+02
0.330982637138487E+02
0.331555198092500E+02
0.268562059393353E+02
0.273721336443911E+02
0.278917823990720E+02
0.284103050246784E+02
0.289226411224030E+02
0.294235615831861E+02
0.299077253392754E+02
0.303697483503234E+02
0.308042840399956E+02
0.312061135717721E+02
0.315702435357908E+02
0.318920078785567E+02
0.321671703101126E+02
0.323920230280567E+02
0.325634774508038E+02
0.326791427815723E+02
0.327373886353538E+02
0.263168804983394E+02
0.268442007483695E+02
0.273750556820018E+02
0.279045028206810E+02
0.284273912146292E+02
0.289384061606177E+02
0.294321261162250E+02
0.299030918382682E+02
0.303458869892386E+02
0.307552286193839E+02
0.311260651053539E+02
0.314536783763712E+02
0.317337866526174E+02
0.319626435179657E+02
0.321371289971812E+02
0.322548284344854E+02
0.323140953817073E+02
0.257738376977011E+02
0.263128870254692E+02
0.268552700712100E+02
0.273959468137690E+02
0.279296739455014E+02
0.284510497644182E+02
0.289545712090719E+02
0.294347031017068E+02
0.298859588741340E+02
0.303029912053628E+02
0.306806901630016E+02
0.310142856801279E+02
0.312994505835973E+02
0.315323999794708E+02
0.317099826438989E+02
0.318297601920227E+02
0.318900702091604E+02
0.252323494787349E+02
0.257833622426969E+02
0.263374943444968E+02
0.268896068666572E+02
0.274343631984382E+02
0.279662740645601E+02
0.284797546344829E+02
0.289691938184087E+02
0.294290350577178E+02
0.298538670626205E+02
0.302385221021657E+02
0.305781786807218E+02
0.308684648095055E+02
0.311055576634006E+02
0.312862752503394E+02
0.314081558419735E+02
0.314695213262655E+02
0.310838925037149E+02
0.315183022323139E+02
0.319575066396771E+02
0.323973564868196E+02
0.328334638301844E+02
0.332612439336012E+02
0.336759695329672E+02
0.340728372519767E+02
0.344470452405791E+02
0.347938803428571E+02
0.351088123524628E+02
0.353875922414811E+02
0.356263507122168E+02
0.358216930744870E+02
0.359707863353081E+02
0.360714345284077E+02
0.361221387124976E+02
0.309930104875341E+02
0.314290435133131E+02
0.318698543367950E+02
0.323112795482280E+02
0.327489173929454E+02
0.331781697539001E+02
0.335942964884962E+02
0.339924819209876E+02
0.343679125640507E+02
0.347158643769241E+02
0.350317971176270E+02
0.353114526731978E+02
0.355509537143705E+02
0.357468986732998E+02
0.358964489267061E+02
0.359974042072189E+02
0.360482626674754E+02
0.308429593442579E+02
0.312816837002394E+02
0.317251574626400E+02
0.321691937514524E+02
0.326093679513652E+02
0.330410598096461E+02
0.334595078905879E+02
0.338598761927434E+02
0.342373320058421E+02
0.345871333160232E+02
0.349047233159416E+02
0.351858289005715E+02
0.354265594900932E+02
0.356235021719558E+02
0.357738090370638E+02
0.358752727251948E+02
0.359263865970004E+02
0.306358279429242E+02
0.310782905677023E+02
0.315254623277002E+02
0.319731237924909E+02
0.324168186706654E+02
0.328518960644918E+02
0.332735650835615E+02
0.336769616307122E+02
0.340572264418479E+02
0.344095926901975E+02
0.347294807104074E+02
0.350125967191251E+02
0.352550318666195E+02
0.354533576026210E+02
0.356047132211346E+02
0.357068815887959E+02
0.357583494641952E+02
0.303744638645499E+02
0.308216824568278E+02
0.312735575446124E+02
0.317258283696574E+02
0.321739984714124E+02
0.326133781353286E+02
0.330391392020333E+02
0.334463820599306E+02
0.338302139091638E+02
0.341858366101933E+02
0.345086416711949E+02
0.347943092459003E+02
0.350389074679829E+02
0.352389880940606E+02
0.353916743073147E+02
0.354947366730635E+02
0.355466536412392E+02
0.300624012557593E+02
0.305153563899250E+02
0.309729024323765E+02
0.314307289018580E+02
0.318842910813795E+02
0.323288526914061E+02
0.327595409244002E+02
0.331714136748791E+02
0.335595380609803E+02
0.339190785544947E+02
0.342453922725555E+02
0.345341282969389E+02
0.347813273372622E+02
0.349835176971014E+02
0.351378033799445E+02
0.352419403106294E+02
0.352943970523844E+02
0.297037743769671E+02
0.301634019137949E+02
0.306275411907235E+02
0.310918240652053E+02
0.315516499596002E+02
0.320022287839396E+02
0.324386362181578E+02
0.328558812020515E+02
0.332489847389295E+02
0.336130683348229E+02
0.339434496258418E+02
0.342357420535876E+02
0.344859548940074E+02
0.346905895839940E+02
0.348467281655306E+02
0.349521098051338E+02
0.350051917517689E+02
0.293032209308332E+02
0.297704047338877E+02
0.302420068826995E+02
0.307135941614839E+02
0.311805030814374E+02
0.316378830704932E+02
0.320807520172569E+02
0.325040640341207E+02
0.329027885575947E+02
0.332719991140602E+02
0.336069693035976E+02
0.339032728556598E+02
0.341568840502917E+02
0.343642744331349E+02
0.345225016251647E+02
0.346292861651152E+02
0.346830727289548E+02
0.288657795219567E+02
0.293413444683107E+02
0.298212195316201E+02
0.303008996011382E+02
0.307756518434856E+02
0.312405591690351E+02
0.316905760427329E+02
0.321205965238767E+02
0.325255336672640E+02
0.329004086219015E+02
0.332404469809263E+02
0.335411792305756E+02
0.337985415797518E+02
0.340089730813450E+02
0.341695048260022E+02
0.342778371249065E+02
0.343324010055308E+02
0.283967855726573E+02
0.288814908290648E+02
0.293703826211535E+02
0.298588777699743E+02
0.303421683372419E+02
0.308152653699479E+02
0.312730549741699E+02
0.317103666250586E+02
0.321220528622543E+02
0.325030787167874E+02
0.328486184252994E+02
0.331541562739877E+02
0.334155878415261E+02
0.336293175343680E+02
0.337923481738025E+02
0.339023585286591E+02
0.339577650959277E+02
0.279017697206841E+02
0.283963022460243E+02
0.288948820022477E+02
0.293928422701880E+02
0.298852949679767E+02
0.303671746674240E+02
0.308332949179170E+02
0.312784168103097E+02
0.316973289495288E+02
0.320849371938795E+02
0.324363617205119E+02
0.327470382548033E+02
0.330128197207858E+02
0.332300741879347E+02
0.333957748516448E+02
0.335075779176765E+02
0.335638846701295E+02
0.273863621927445E+02
0.278913304263985E+02
0.284001906966840E+02
0.289081880208529E+02
0.294103498977512E+02
0.299015305817081E+02
0.303764676349956E+02
0.308298507199416E+02
0.312564018216380E+02
0.316509652733940E+02
0.320086051496782E+02
0.323247068606946E+02
0.325950791940864E+02
0.328160526609679E+02
0.329845698611861E+02
0.330982637138487E+02
0.331555198092500E+02
0.268562059393353E+02
0.273721336443911E+02
0.278917823990720E+02
0.284103050246784E+02
0.289226411224030E+02
0.294235615831861E+02
0.299077253392754E+02
0.303697483503234E+02
0.308042840399956E+02
0.312061135717721E+02
0.315702435357908E+02
0.318920078785567E+02
0.321671703101126E+02
0.323920230280567E+02
0.325634774508038E+02
0.326791427815723E+02
0.327373886353538E+02
0.263168804983394E+02
0.268442007483695E+02
0.273750556820018E+02
0.279045028206810E+02
0.284273912146292E+02
0.289384061606177E+02
0.294321261162250E+02
0.299030918382682E+02
0.303458869892386E+02
0.307552286193839E+02
0.311260651053539E+02
0.314536783763712E+02
0.317337866526174E+02
0.319626435179657E+02
0.321371289971812E+02
0.322548284344854E+02
0.323140953817073E+02
0.257738376977011E+02
0.263128870254692E+02
0.268552700712100E+02
0.273959468137690E+02
0.279296739455014E+02
0.284510497644182E+02
0.289545712090719E+02
0.294347031017068E+02
0.298859588741340E+02
0.303029912053628E+02
0.306806901630016E+02
0.310142856801279E+02
0.312994505835973E+02
0.315323999794708E+02
0.317099826438989E+02
0.318297601920227E+02
0.318900702091604E+02
0.252323494787349E+02
0.257833622426969E+02
0.263374943444968E+02
0.268896068666572E+02
0.274343631984382E+02
0.279662740645601E+02
0.284797546344829E+02
0.289691938184087E+02
0.294290350577178E+02
0.298538670626205E+02
0.302385221021657E+02
0.305781786807218E+02
0.308684648095055E+02
0.311055576634006E+02
0.312862752503394E+02
0.314081558419735E+02
0.314695213262655E+02
</DataArray>
</PointData>
</Piece>
</RectilinearGrid>
</VTKFile>
