<?xml version="1.0"?>
<VTKFile type="RectilinearGrid" version="0.1" byte_order="LittleEndian">
<RectilinearGrid WholeExtent="0   63    0   63    0    3">
<Piece Extent="31   47   15   31    0    3">
<Coordinates>
<DataArray Name="x" type="Float32" format="ascii">
0.310000000000000E+01
0.320000000000000E+01
0.330000000000000E+01
0.340000000000000E+01
0.350000000000000E+01
0.360000000000000E+01
0.370000000000000E+01
0.380000000000000E+01
0.390000000000000E+01
0.400000000000000E+01
0.410000000000000E+01
0.420000000000000E+01
0.430000000000000E+01
0.440000000000000E+01
0.450000000000000E+01
0.460000000000000E+01
0.470000000000000E+01
</DataArray>
<DataArray Name="y" type="Float32" format="ascii">
0.150000000000000E+01
0.160000000000000E+01
0.170000000000000E+01
0.180000000000000E+01
0.190000000000000E+01
0.200000000000000E+01
0.210000000000000E+01
0.220000000000000E+01
0.230000000000000E+01
0.240000000000000E+01
0.250000000000000E+01
0.260000000000000E+01
0.270000000000000E+01
0.280000000000000E+01
0.290000000000000E+01
0.300000000000000E+01
0.310000000000000E+01
</DataArray>
<DataArray Name="z" type="Float32" format="ascii">
0.000000000000000E+00
0.100000000000000E+00
0.200000000000000E+00
0.300000000000000E+00
</DataArray>
</Coordinates>
<PointData Scalars="c">
<DataArray type="Float32" Name="c" format="ascii">
0.178190458675740E+02
0.178485672132980E+02
0.179368312571692E+02
0.180829524841366E+02
0.182855017297375E+02
0.185425711671380E+02
0.188518560657918E+02
0.192107459405712E+02
0.196164177313644E+02
0.200659245609080E+02
0.205562750823474E+02
0.210845000467889E+02
0.216477041005939E+02
0.222431016205633E+02
0.228680353386796E+02
0.235199753989904E+02
0.241964942437590E+02
0.168790077122921E+02
0.169102071060961E+02
0.170034545521642E+02
0.171577162507698E+02
0.173713284862216E+02
0.176420796943267E+02
0.179673129044503E+02
0.183440387246560E+02
0.187690492348132E+02
0.192390245651277E+02
0.197506260830141E+02
0.203005724273062E+02
0.208856965924761E+02
0.215029834615025E+02
0.221495873237295E+02
0.228228278219324E+02
0.235201604164395E+02
0.159482982292825E+02
0.159813358574994E+02
0.160800375966315E+02
0.162431934229661E+02
0.164688618713988E+02
0.167544736377883E+02
0.170969598917243E+02
0.174928922605173E+02
0.179386219193242E+02
0.184304073489977E+02
0.189645234032951E+02
0.195373475749236E+02
0.201454220699548E+02
0.207854919851611E+02
0.214545202304973E+02
0.221496787242222E+02
0.228683128516780E+02
0.150296841713977E+02
0.150647299626835E+02
0.151693847164683E+02
0.153422302731640E+02
0.155809982745371E+02
0.158827006229413E+02
0.162437898152517E+02
0.166603319755980E+02
0.171281763007728E+02
0.176431077425754E+02
0.182009740850857E+02
0.187977830441660E+02
0.194297686988029E+02
0.200934288391544E+02
0.207855353796120E+02
0.215031187865453E+02
0.222434246593942E+02
0.141266250417520E+02
0.141638539617175E+02
0.142749743238097E+02
0.144583244158422E+02
0.147112546602069E+02
0.150302910909624E+02
0.154113347775702E+02
0.158498747811048E+02
0.163411937113617E+02
0.168805493810179E+02
0.174633220283249E+02
0.180851226159258E+02
0.187418625957435E+02
0.194297885029105E+02
0.201454855128159E+02
0.208858527262687E+02
0.216480497403089E+02
0.132435233005388E+02
0.132831078444598E+02
0.134011981309294E+02
0.135958510570753E+02
0.138639780166010E+02
0.142015482496104E+02
0.146038351661380E+02
0.150656767379190E+02
0.155817233443048E+02
0.161466525976634E+02
0.167553387416835E+02
0.174029722133925E+02
0.180851313054605E+02
0.187978116449309E+02
0.195374201580410E+02
0.203007385383059E+02
0.210848574821974E+02
0.123859567066157E+02
0.124280561643566E+02
0.125535808492961E+02
0.127602678597996E+02
0.130445311290659E+02
0.134017118982597E+02
0.138263801431849E+02
0.143126502038953E+02
0.148544772152405E+02
0.154459092289744E+02
0.160812805765565E+02
0.167553424080976E+02
0.174633344289224E+02
0.182010065445611E+02
0.189646002168872E+02
0.197507972611843E+02
0.205566393445200E+02
0.115608710068753E+02
0.116056174143389E+02
0.117389599232877E+02
0.119582795570486E+02
0.122594378736225E+02
0.126370817329083E+02
0.130850078789587E+02
0.135965413726206E+02
0.141648865826875E+02
0.147834203519137E+02
0.154459107168697E+02
0.161466577696378E+02
0.168805633474291E+02
0.176431419247346E+02
0.184304862510377E+02
0.192391986297789E+02
0.200662933648166E+02
0.107766960765764E+02
0.108241773129816E+02
0.109655905378464E+02
0.111979300642765E+02
0.115164590242556E+02
0.119150748687614E+02
0.123867442691868E+02
0.129239509790669E+02
0.135191064750711E+02
0.141648871635450E+02
0.148544792906145E+02
0.155817291270665E+02
0.163412083513291E+02
0.171282113081384E+02
0.179387019898632E+02
0.187692252074042E+02
0.196167899679405E+02
0.100433386018457E+02
0.100935798005907E+02
0.102431317640329E+02
0.104885812006223E+02
0.108245618490560E+02
0.112441856257800E+02
0.117395532311303E+02
0.123022762922700E+02
0.129239511972453E+02
0.135965421740006E+02
0.143126525083162E+02
0.150656827734826E+02
0.158498897333555E+02
0.166603674349572E+02
0.174929730955484E+02
0.183442161312615E+02
0.192111209883265E+02
0.937200389045063E+01
0.942494909073065E+01
0.958246939700899E+01
0.984073703523574E+01
0.101937469302171E+02
0.106338160370069E+02
0.111521723076831E+02
0.117395533099936E+02
0.123867445670090E+02
0.130850087629180E+02
0.138263825386554E+02
0.146038413147380E+02
0.154113498964451E+02
0.162438255657006E+02
0.170970412948892E+02
0.179674914714544E+02
0.188522334909867E+02
0.877481203298342E+01
0.883030863110320E+01
0.899534317400253E+01
0.926568440662179E+01
0.963470638183718E+01
0.100939553369485E+02
0.106338160644438E+02
0.112441857323229E+02
0.119150751952090E+02
0.126370826483216E+02
0.134017143327986E+02
0.142015544565384E+02
0.150303063146141E+02
0.158827365855684E+02
0.167545554917254E+02
0.176422592217253E+02
0.185429505995498E+02
0.826420058576582E+01
0.832198943803090E+01
0.849377168068476E+01
0.877494422093627E+01
0.915830967799732E+01
0.963470639102638E+01
0.101937469669129E+02
0.108245619651400E+02
0.115164593611203E+02
0.122594388019000E+02
0.130445335828934E+02
0.138639842589054E+02
0.147112699578742E+02
0.155810344003653E+02
0.164689440865108E+02
0.173715087975159E+02
0.182858828142488E+02
0.785214438626988E+01
0.791185818566446E+01
0.808930464810210E+01
0.837956213274162E+01
0.877494422390071E+01
0.926568441879348E+01
0.984073707499051E+01
0.104885813200125E+02
0.111979304051647E+02
0.119582804913050E+02
0.127602703246911E+02
0.135958573231284E+02
0.144583397676739E+02
0.153422665233121E+02
0.162432759180838E+02
0.171578971744570E+02
0.180833348636899E+02
0.754926570514987E+01
0.761043741635093E+01
0.779217255769505E+01
0.808930464902796E+01
0.849377168457907E+01
0.899534318712218E+01
0.958246943777297E+01
0.102431318846175E+02
0.109655908804536E+02
0.117389608606801E+02
0.125535833209949E+02
0.134012044129341E+02
0.142749897135056E+02
0.151694210550099E+02
0.160801202922631E+02
0.170036359157325E+02
0.179372145682105E+02
0.736394398970804E+01
0.742602575048676E+01
0.761043741664800E+01
0.791185818688801E+01
0.832198944222619E+01
0.883030864453584E+01
0.942494913184590E+01
0.100935799216398E+02
0.108241776563715E+02
0.116056183533707E+02
0.124280586399116E+02
0.132831141358393E+02
0.141638693740091E+02
0.150647663543052E+02
0.159814186738515E+02
0.169103887347902E+02
0.178489510860438E+02
0.730155277098419E+01
0.736394398986646E+01
0.754926570560528E+01
0.785214438765185E+01
0.826420059012042E+01
0.877481204657914E+01
0.937200393174144E+01
0.100433387231078E+02
0.107766964202853E+02
0.115608719465121E+02
0.123859591835160E+02
0.132435295951076E+02
0.141266404616514E+02
0.150297205808156E+02
0.159483810860382E+02
0.168791894296556E+02
0.178194299281185E+02
0.178190458675740E+02
0.178485672132979E+02
0.179368312571691E+02
0.180829524841365E+02
0.182855017297375E+02
0.185425711671379E+02
0.188518560657917E+02
0.192107459405711E+02
0.196164177313644E+02
0.200659245609079E+02
0.205562750823474E+02
0.210845000467888E+02
0.216477041005938E+02
0.222431016205632E+02
0.228680353386796E+02
0.235199753989904E+02
0.241964942437590E+02
0.168790077122920E+02
0.169102071060960E+02
0.170034545521641E+02
0.171577162507697E+02
0.173713284862215E+02
0.176420796943266E+02
0.179673129044503E+02
0.183440387246559E+02
0.187690492348132E+02
0.192390245651276E+02
0.197506260830140E+02
0.203005724273061E+02
0.208856965924761E+02
0.215029834615024E+02
0.221495873237295E+02
0.228228278219324E+02
0.235201604164395E+02
0.159482982292824E+02
0.159813358574993E+02
0.160800375966315E+02
0.162431934229660E+02
0.164688618713987E+02
0.167544736377882E+02
0.170969598917242E+02
0.174928922605172E+02
0.179386219193241E+02
0.184304073489976E+02
0.189645234032951E+02
0.195373475749236E+02
0.201454220699547E+02
0.207854919851610E+02
0.214545202304973E+02
0.221496787242222E+02
0.228683128516779E+02
0.150296841713976E+02
0.150647299626834E+02
0.151693847164682E+02
0.153422302731639E+02
0.155809982745370E+02
0.158827006229412E+02
0.162437898152517E+02
0.166603319755979E+02
0.171281763007727E+02
0.176431077425753E+02
0.182009740850856E+02
0.187977830441660E+02
0.194297686988028E+02
0.200934288391543E+02
0.207855353796119E+02
0.215031187865453E+02
0.222434246593942E+02
0.141266250417519E+02
0.141638539617174E+02
0.142749743238095E+02
0.144583244158421E+02
0.147112546602068E+02
0.150302910909623E+02
0.154113347775701E+02
0.158498747811047E+02
0.163411937113616E+02
0.168805493810178E+02
0.174633220283249E+02
0.180851226159257E+02
0.187418625957434E+02
0.194297885029104E+02
0.201454855128158E+02
0.208858527262686E+02
0.216480497403089E+02
0.132435233005387E+02
0.132831078444597E+02
0.134011981309293E+02
0.135958510570751E+02
0.138639780166008E+02
0.142015482496102E+02
0.146038351661379E+02
0.150656767379189E+02
0.155817233443047E+02
0.161466525976633E+02
0.167553387416834E+02
0.174029722133925E+02
0.180851313054604E+02
0.187978116449308E+02
0.195374201580410E+02
0.203007385383058E+02
0.210848574821973E+02
0.123859567066155E+02
0.124280561643565E+02
0.125535808492960E+02
0.127602678597995E+02
0.130445311290658E+02
0.134017118982596E+02
0.138263801431848E+02
0.143126502038952E+02
0.148544772152404E+02
0.154459092289743E+02
0.160812805765564E+02
0.167553424080975E+02
0.174633344289223E+02
0.182010065445610E+02
0.189646002168872E+02
0.197507972611842E+02
0.205566393445200E+02
0.115608710068751E+02
0.116056174143387E+02
0.117389599232876E+02
0.119582795570484E+02
0.122594378736224E+02
0.126370817329081E+02
0.130850078789586E+02
0.135965413726205E+02
0.141648865826874E+02
0.147834203519136E+02
0.154459107168696E+02
0.161466577696377E+02
0.168805633474290E+02
0.176431419247345E+02
0.184304862510376E+02
0.192391986297789E+02
0.200662933648165E+02
0.107766960765762E+02
0.108241773129815E+02
0.109655905378463E+02
0.111979300642763E+02
0.115164590242554E+02
0.119150748687612E+02
0.123867442691867E+02
0.129239509790668E+02
0.135191064750710E+02
0.141648871635448E+02
0.148544792906144E+02
0.155817291270664E+02
0.163412083513290E+02
0.171282113081383E+02
0.179387019898631E+02
0.187692252074041E+02
0.196167899679405E+02
0.100433386018455E+02
0.100935798005905E+02
0.102431317640327E+02
0.104885812006221E+02
0.108245618490558E+02
0.112441856257798E+02
0.117395532311301E+02
0.123022762922699E+02
0.129239511972451E+02
0.135965421740005E+02
0.143126525083161E+02
0.150656827734825E+02
0.158498897333554E+02
0.166603674349571E+02
0.174929730955483E+02
0.183442161312614E+02
0.192111209883264E+02
0.937200389045045E+01
0.942494909073047E+01
0.958246939700881E+01
0.984073703523557E+01
0.101937469302169E+02
0.106338160370067E+02
0.111521723076830E+02
0.117395533099934E+02
0.123867445670089E+02
0.130850087629179E+02
0.138263825386552E+02
0.146038413147379E+02
0.154113498964450E+02
0.162438255657005E+02
0.170970412948891E+02
0.179674914714543E+02
0.188522334909867E+02
0.877481203298323E+01
0.883030863110301E+01
0.899534317400234E+01
0.926568440662161E+01
0.963470638183700E+01
0.100939553369484E+02
0.106338160644437E+02
0.112441857323228E+02
0.119150751952089E+02
0.126370826483215E+02
0.134017143327985E+02
0.142015544565382E+02
0.150303063146140E+02
0.158827365855683E+02
0.167545554917253E+02
0.176422592217252E+02
0.185429505995497E+02
0.826420058576562E+01
0.832198943803070E+01
0.849377168068456E+01
0.877494422093607E+01
0.915830967799713E+01
0.963470639102620E+01
0.101937469669127E+02
0.108245619651398E+02
0.115164593611201E+02
0.122594388018999E+02
0.130445335828932E+02
0.138639842589053E+02
0.147112699578741E+02
0.155810344003652E+02
0.164689440865107E+02
0.173715087975159E+02
0.182858828142488E+02
0.785214438626967E+01
0.791185818566425E+01
0.808930464810190E+01
0.837956213274142E+01
0.877494422390052E+01
0.926568441879329E+01
0.984073707499034E+01
0.104885813200123E+02
0.111979304051646E+02
0.119582804913049E+02
0.127602703246909E+02
0.135958573231283E+02
0.144583397676738E+02
0.153422665233120E+02
0.162432759180838E+02
0.171578971744569E+02
0.180833348636899E+02
0.754926570514965E+01
0.761043741635071E+01
0.779217255769483E+01
0.808930464902776E+01
0.849377168457887E+01
0.899534318712199E+01
0.958246943777279E+01
0.102431318846173E+02
0.109655908804535E+02
0.117389608606800E+02
0.125535833209948E+02
0.134012044129340E+02
0.142749897135054E+02
0.151694210550098E+02
0.160801202922630E+02
0.170036359157324E+02
0.179372145682104E+02
0.736394398970781E+01
0.742602575048653E+01
0.761043741664778E+01
0.791185818688780E+01
0.832198944222599E+01
0.883030864453564E+01
0.942494913184572E+01
0.100935799216396E+02
0.108241776563714E+02
0.116056183533706E+02
0.124280586399114E+02
0.132831141358391E+02
0.141638693740090E+02
0.150647663543051E+02
0.159814186738514E+02
0.169103887347901E+02
0.178489510860437E+02
0.730155277098396E+01
0.736394398986624E+01
0.754926570560506E+01
0.785214438765163E+01
0.826420059012022E+01
0.877481204657895E+01
0.937200393174126E+01
0.100433387231077E+02
0.107766964202851E+02
0.115608719465119E+02
0.123859591835159E+02
0.132435295951074E+02
0.141266404616513E+02
0.150297205808155E+02
0.159483810860381E+02
0.168791894296555E+02
0.178194299281184E+02
0.178190458675740E+02
0.178485672132980E+02
0.179368312571692E+02
0.180829524841366E+02
0.182855017297375E+02
0.185425711671380E+02
0.188518560657918E+02
0.192107459405712E+02
0.196164177313644E+02
0.200659245609080E+02
0.205562750823474E+02
0.210845000467889E+02
0.216477041005939E+02
0.222431016205633E+02
0.228680353386796E+02
0.235199753989904E+02
0.241964942437590E+02
0.168790077122921E+02
0.169102071060961E+02
0.170034545521642E+02
0.171577162507698E+02
0.173713284862216E+02
0.176420796943267E+02
0.179673129044503E+02
0.183440387246560E+02
0.187690492348132E+02
0.192390245651277E+02
0.197506260830141E+02
0.203005724273062E+02
0.208856965924761E+02
0.215029834615025E+02
0.221495873237295E+02
0.228228278219324E+02
0.235201604164395E+02
0.159482982292825E+02
0.159813358574994E+02
0.160800375966315E+02
0.162431934229661E+02
0.164688618713988E+02
0.167544736377883E+02
0.170969598917243E+02
0.174928922605173E+02
0.179386219193242E+02
0.184304073489977E+02
0.189645234032951E+02
0.195373475749236E+02
0.201454220699548E+02
0.207854919851611E+02
0.214545202304973E+02
0.221496787242222E+02
0.228683128516780E+02
0.150296841713977E+02
0.150647299626835E+02
0.151693847164683E+02
0.153422302731640E+02
0.155809982745371E+02
0.158827006229413E+02
0.162437898152517E+02
0.166603319755980E+02
0.171281763007728E+02
0.176431077425754E+02
0.182009740850857E+02
0.187977830441660E+02
0.194297686988029E+02
0.200934288391544E+02
0.207855353796120E+02
0.215031187865453E+02
0.222434246593942E+02
0.141266250417520E+02
0.141638539617175E+02
0.142749743238097E+02
0.144583244158422E+02
0.147112546602069E+02
0.150302910909624E+02
0.154113347775702E+02
0.158498747811048E+02
0.163411937113617E+02
0.168805493810179E+02
0.174633220283249E+02
0.180851226159258E+02
0.187418625957435E+02
0.194297885029105E+02
0.201454855128159E+02
0.208858527262687E+02
0.216480497403089E+02
0.132435233005388E+02
0.132831078444598E+02
0.134011981309294E+02
0.135958510570753E+02
0.138639780166010E+02
0.142015482496104E+02
0.146038351661380E+02
0.150656767379190E+02
0.155817233443048E+02
0.161466525976634E+02
0.167553387416835E+02
0.174029722133925E+02
0.180851313054605E+02
0.187978116449309E+02
0.195374201580410E+02
0.203007385383059E+02
0.210848574821974E+02
0.123859567066157E+02
0.124280561643566E+02
0.125535808492961E+02
0.127602678597996E+02
0.130445311290659E+02
0.134017118982597E+02
0.138263801431849E+02
0.143126502038953E+02
0.148544772152405E+02
0.154459092289744E+02
0.160812805765565E+02
0.167553424080976E+02
0.174633344289224E+02
0.182010065445611E+02
0.189646002168872E+02
0.197507972611843E+02
0.205566393445200E+02
0.115608710068753E+02
0.116056174143389E+02
0.117389599232877E+02
0.119582795570486E+02
0.122594378736225E+02
0.126370817329083E+02
0.130850078789587E+02
0.135965413726206E+02
0.141648865826875E+02
0.147834203519137E+02
0.154459107168697E+02
0.161466577696378E+02
0.168805633474291E+02
0.176431419247346E+02
0.184304862510377E+02
0.192391986297789E+02
0.200662933648166E+02
0.107766960765764E+02
0.108241773129816E+02
0.109655905378464E+02
0.111979300642765E+02
0.115164590242556E+02
0.119150748687614E+02
0.123867442691868E+02
0.129239509790669E+02
0.135191064750711E+02
0.141648871635450E+02
0.148544792906145E+02
0.155817291270665E+02
0.163412083513291E+02
0.171282113081384E+02
0.179387019898632E+02
0.187692252074042E+02
0.196167899679405E+02
0.100433386018457E+02
0.100935798005907E+02
0.102431317640329E+02
0.104885812006223E+02
0.108245618490560E+02
0.112441856257800E+02
0.117395532311303E+02
0.123022762922700E+02
0.129239511972453E+02
0.135965421740006E+02
0.143126525083162E+02
0.150656827734826E+02
0.158498897333555E+02
0.166603674349572E+02
0.174929730955484E+02
0.183442161312615E+02
0.192111209883265E+02
0.937200389045063E+01
0.942494909073065E+01
0.958246939700899E+01
0.984073703523574E+01
0.101937469302171E+02
0.106338160370069E+02
0.111521723076831E+02
0.117395533099936E+02
0.123867445670090E+02
0.130850087629180E+02
0.138263825386554E+02
0.146038413147380E+02
0.154113498964451E+02
0.162438255657006E+02
0.170970412948892E+02
0.179674914714544E+02
0.188522334909867E+02
0.877481203298342E+01
0.883030863110320E+01
0.899534317400253E+01
0.926568440662179E+01
0.963470638183718E+01
0.100939553369485E+02
0.106338160644438E+02
0.112441857323229E+02
0.119150751952090E+02
0.126370826483216E+02
0.134017143327986E+02
0.142015544565384E+02
0.150303063146141E+02
0.158827365855684E+02
0.167545554917254E+02
0.176422592217253E+02
0.185429505995498E+02
0.826420058576582E+01
0.832198943803090E+01
0.849377168068476E+01
0.877494422093627E+01
0.915830967799732E+01
0.963470639102638E+01
0.101937469669129E+02
0.108245619651400E+02
0.115164593611203E+02
0.122594388019000E+02
0.130445335828934E+02
0.138639842589054E+02
0.147112699578742E+02
0.155810344003653E+02
0.164689440865108E+02
0.173715087975159E+02
0.182858828142488E+02
0.785214438626988E+01
0.791185818566446E+01
0.808930464810210E+01
0.837956213274162E+01
0.877494422390071E+01
0.926568441879348E+01
0.984073707499051E+01
0.104885813200125E+02
0.111979304051647E+02
0.119582804913050E+02
0.127602703246911E+02
0.135958573231284E+02
0.144583397676739E+02
0.153422665233121E+02
0.162432759180838E+02
0.171578971744570E+02
0.180833348636899E+02
0.754926570514987E+01
0.761043741635093E+01
0.779217255769505E+01
0.808930464902796E+01
0.849377168457907E+01
0.899534318712218E+01
0.958246943777297E+01
0.102431318846175E+02
0.109655908804536E+02
0.117389608606801E+02
0.125535833209949E+02
0.134012044129341E+02
0.142749897135056E+02
0.151694210550099E+02
0.160801202922631E+02
0.170036359157325E+02
0.179372145682105E+02
0.736394398970804E+01
0.742602575048676E+01
0.761043741664800E+01
0.791185818688801E+01
0.832198944222619E+01
0.883030864453584E+01
0.942494913184590E+01
0.100935799216398E+02
0.108241776563715E+02
0.116056183533707E+02
0.124280586399116E+02
0.132831141358393E+02
0.141638693740091E+02
0.150647663543052E+02
0.159814186738515E+02
0.169103887347902E+02
0.178489510860438E+02
0.730155277098419E+01
0.736394398986646E+01
0.754926570560528E+01
0.785214438765185E+01
0.826420059012042E+01
0.877481204657914E+01
0.937200393174144E+01
0.100433387231078E+02
0.107766964202853E+02
0.115608719465121E+02
0.123859591835160E+02
0.132435295951076E+02
0.141266404616514E+02
0.150297205808156E+02
0.159483810860382E+02
0.168791894296556E+02
0.178194299281185E+02
0.178190458675741E+02
0.178485672132981E+02
0.179368312571693E+02
0.180829524841367E+02
0.182855017297376E+02
0.185425711671380E+02
0.188518560657919E+02
0.192107459405713E+02
0.196164177313645E+02
0.200659245609081E+02
0.205562750823475E+02
0.210845000467889E+02
0.216477041005940E+02
0.222431016205633E+02
0.228680353386797E+02
0.235199753989905E+02
0.241964942437591E+02
0.168790077122922E+02
0.169102071060961E+02
0.170034545521643E+02
0.171577162507699E+02
0.173713284862217E+02
0.176420796943268E+02
0.179673129044504E+02
0.183440387246561E+02
0.187690492348133E+02
0.192390245651277E+02
0.197506260830141E+02
0.203005724273063E+02
0.208856965924762E+02
0.215029834615025E+02
0.221495873237296E+02
0.228228278219325E+02
0.235201604164396E+02
0.159482982292826E+02
0.159813358574995E+02
0.160800375966316E+02
0.162431934229662E+02
0.164688618713989E+02
0.167544736377884E+02
0.170969598917244E+02
0.174928922605174E+02
0.179386219193243E+02
0.184304073489978E+02
0.189645234032952E+02
0.195373475749237E+02
0.201454220699548E+02
0.207854919851611E+02
0.214545202304974E+02
0.221496787242223E+02
0.228683128516781E+02
0.150296841713978E+02
0.150647299626836E+02
0.151693847164684E+02
0.153422302731641E+02
0.155809982745372E+02
0.158827006229414E+02
0.162437898152518E+02
0.166603319755981E+02
0.171281763007729E+02
0.176431077425755E+02
0.182009740850858E+02
0.187977830441661E+02
0.194297686988030E+02
0.200934288391545E+02
0.207855353796120E+02
0.215031187865454E+02
0.222434246593943E+02
0.141266250417521E+02
0.141638539617176E+02
0.142749743238098E+02
0.144583244158423E+02
0.147112546602070E+02
0.150302910909625E+02
0.154113347775703E+02
0.158498747811049E+02
0.163411937113618E+02
0.168805493810180E+02
0.174633220283250E+02
0.180851226159259E+02
0.187418625957436E+02
0.194297885029106E+02
0.201454855128159E+02
0.208858527262687E+02
0.216480497403090E+02
0.132435233005389E+02
0.132831078444600E+02
0.134011981309295E+02
0.135958510570754E+02
0.138639780166011E+02
0.142015482496105E+02
0.146038351661381E+02
0.150656767379191E+02
0.155817233443049E+02
0.161466525976635E+02
0.167553387416836E+02
0.174029722133926E+02
0.180851313054606E+02
0.187978116449310E+02
0.195374201580411E+02
0.203007385383060E+02
0.210848574821975E+02
0.123859567066158E+02
0.124280561643567E+02
0.125535808492963E+02
0.127602678597997E+02
0.130445311290661E+02
0.134017118982598E+02
0.138263801431850E+02
0.143126502038954E+02
0.148544772152406E+02
0.154459092289745E+02
0.160812805765566E+02
0.167553424080977E+02
0.174633344289225E+02
0.182010065445611E+02
0.189646002168873E+02
0.197507972611843E+02
0.205566393445201E+02
0.115608710068754E+02
0.116056174143390E+02
0.117389599232878E+02
0.119582795570487E+02
0.122594378736227E+02
0.126370817329084E+02
0.130850078789588E+02
0.135965413726207E+02
0.141648865826876E+02
0.147834203519138E+02
0.154459107168698E+02
0.161466577696379E+02
0.168805633474292E+02
0.176431419247346E+02
0.184304862510378E+02
0.192391986297790E+02
0.200662933648167E+02
0.107766960765765E+02
0.108241773129818E+02
0.109655905378466E+02
0.111979300642766E+02
0.115164590242557E+02
0.119150748687615E+02
0.123867442691870E+02
0.129239509790670E+02
0.135191064750712E+02
0.141648871635451E+02
0.148544792906146E+02
0.155817291270666E+02
0.163412083513292E+02
0.171282113081385E+02
0.179387019898633E+02
0.187692252074043E+02
0.196167899679406E+02
0.100433386018459E+02
0.100935798005909E+02
0.102431317640331E+02
0.104885812006224E+02
0.108245618490561E+02
0.112441856257801E+02
0.117395532311304E+02
0.123022762922702E+02
0.129239511972454E+02
0.135965421740007E+02
0.143126525083163E+02
0.150656827734827E+02
0.158498897333555E+02
0.166603674349573E+02
0.174929730955485E+02
0.183442161312615E+02
0.192111209883266E+02
0.937200389045081E+01
0.942494909073083E+01
0.958246939700916E+01
0.984073703523591E+01
0.101937469302173E+02
0.106338160370071E+02
0.111521723076833E+02
0.117395533099937E+02
0.123867445670091E+02
0.130850087629182E+02
0.138263825386555E+02
0.146038413147381E+02
0.154113498964452E+02
0.162438255657007E+02
0.170970412948893E+02
0.179674914714545E+02
0.188522334909868E+02
0.877481203298361E+01
0.883030863110339E+01
0.899534317400272E+01
0.926568440662197E+01
0.963470638183735E+01
0.100939553369487E+02
0.106338160644440E+02
0.112441857323231E+02
0.119150751952092E+02
0.126370826483218E+02
0.134017143327988E+02
0.142015544565385E+02
0.150303063146142E+02
0.158827365855685E+02
0.167545554917255E+02
0.176422592217254E+02
0.185429505995499E+02
0.826420058576602E+01
0.832198943803111E+01
0.849377168068495E+01
0.877494422093646E+01
0.915830967799751E+01
0.963470639102655E+01
0.101937469669130E+02
0.108245619651402E+02
0.115164593611204E+02
0.122594388019001E+02
0.130445335828935E+02
0.138639842589056E+02
0.147112699578744E+02
0.155810344003654E+02
0.164689440865109E+02
0.173715087975160E+02
0.182858828142489E+02
0.785214438627010E+01
0.791185818566467E+01
0.808930464810231E+01
0.837956213274183E+01
0.877494422390090E+01
0.926568441879366E+01
0.984073707499068E+01
0.104885813200126E+02
0.111979304051649E+02
0.119582804913052E+02
0.127602703246912E+02
0.135958573231286E+02
0.144583397676740E+02
0.153422665233122E+02
0.162432759180839E+02
0.171578971744571E+02
0.180833348636900E+02
0.754926570515009E+01
0.761043741635115E+01
0.779217255769526E+01
0.808930464902817E+01
0.849377168457927E+01
0.899534318712237E+01
0.958246943777315E+01
0.102431318846176E+02
0.109655908804538E+02
0.117389608606803E+02
0.125535833209950E+02
0.134012044129343E+02
0.142749897135057E+02
0.151694210550100E+02
0.160801202922632E+02
0.170036359157326E+02
0.179372145682105E+02
0.736394398970826E+01
0.742602575048698E+01
0.761043741664822E+01
0.791185818688823E+01
0.832198944222640E+01
0.883030864453603E+01
0.942494913184608E+01
0.100935799216399E+02
0.108241776563717E+02
0.116056183533709E+02
0.124280586399117E+02
0.132831141358394E+02
0.141638693740093E+02
0.150647663543053E+02
0.159814186738516E+02
0.169103887347903E+02
0.178489510860439E+02
0.730155277098442E+01
0.736394398986669E+01
0.754926570560550E+01
0.785214438765206E+01
0.826420059012063E+01
0.877481204657933E+01
0.937200393174163E+01
0.100433387231080E+02
0.107766964202854E+02
0.115608719465122E+02
0.123859591835162E+02
0.132435295951077E+02
0.141266404616515E+02
0.150297205808157E+02
0.159483810860383E+02
0.168791894296557E+02
0.178194299281185E+02
</DataArray>
</PointData>
</Piece>
</RectilinearGrid>
</VTKFile>
