<?xml version="1.0"?>
<VTKFile type="RectilinearGrid" version="0.1" byte_order="LittleEndian">
<RectilinearGrid WholeExtent="0   63    0   63    0    3">
<Piece Extent="31   47   47   63    0    3">
<Coordinates>
<DataArray Name="x" type="Float32" format="ascii">
0.310000000000000E+01
0.320000000000000E+01
0.330000000000000E+01
0.340000000000000E+01
0.350000000000000E+01
0.360000000000000E+01
0.370000000000000E+01
0.380000000000000E+01
0.390000000000000E+01
0.400000000000000E+01
0.410000000000000E+01
0.420000000000000E+01
0.430000000000000E+01
0.440000000000000E+01
0.450000000000000E+01
0.460000000000000E+01
0.470000000000000E+01
</DataArray>
<DataArray Name="y" type="Float32" format="ascii">
0.470000000000000E+01
0.480000000000000E+01
0.490000000000000E+01
0.500000000000000E+01
0.510000000000000E+01
0.520000000000000E+01
0.530000000000000E+01
0.540000000000000E+01
0.550000000000000E+01
0.560000000000000E+01
0.570000000000000E+01
0.580000000000000E+01
0.590000000000000E+01
0.600000000000000E+01
0.610000000000000E+01
0.620000000000000E+01
0.630000000000000E+01
</DataArray>
<DataArray Name="z" type="Float32" format="ascii">
0.000000000000000E+00
0.100000000000000E+00
0.200000000000000E+00
0.300000000000000E+00
</DataArray>
</Coordinates>
<PointData Scalars="c">
<DataArray type="Float32" Name="c" format="ascii">
0.224088624336864E+02
0.224277907648335E+02
0.224760404783259E+02
0.225532839006784E+02
0.226589310199839E+02
0.227921338068780E+02
0.229517924183487E+02
0.231365632872393E+02
0.233448691019013E+02
0.235749106793100E+02
0.238246807304450E+02
0.240919795083733E+02
0.243744323169025E+02
0.246695088407188E+02
0.249745442365908E+02
0.252867618997294E+02
0.256032977901635E+02
0.227542950191599E+02
0.227730025834582E+02
0.228206507751643E+02
0.228969171882644E+02
0.230012208914588E+02
0.231327266357529E+02
0.232903509023817E+02
0.234727697967016E+02
0.236784287959081E+02
0.239055543578124E+02
0.241521673938169E+02
0.244160986011600E+02
0.246950056371162E+02
0.249863921009425E+02
0.252876282679861E+02
0.255959734947211E+02
0.259086001840117E+02
0.230969449812274E+02
0.231154342925501E+02
0.231624879737196E+02
0.232377888187579E+02
0.233407648621843E+02
0.234705934748862E+02
0.236262072584188E+02
0.238063017461018E+02
0.240093449221130E+02
0.242335885696644E+02
0.244770814556603E+02
0.247376843514633E+02
0.250130868771864E+02
0.253008261401015E+02
0.255983071163275E+02
0.259028246991728E+02
0.262115873077999E+02
0.234334904597109E+02
0.234517661160028E+02
0.234982379676917E+02
0.235725938920754E+02
0.236742706895927E+02
0.238024580706800E+02
0.239561044001519E+02
0.241339242101333E+02
0.243344074959936E+02
0.245558308101166E+02
0.247962701650490E+02
0.250536157500870E+02
0.253255884533248E+02
0.256097581644257E+02
0.259035638119077E+02
0.262043350628049E+02
0.265093155826308E+02
0.237606534679193E+02
0.237787220965984E+02
0.238246303150802E+02
0.238980709194237E+02
0.239984891936326E+02
0.241250867912135E+02
0.242768273347318E+02
0.244524437469555E+02
0.246504473311668E+02
0.248691386190844E+02
0.251066200019305E+02
0.253608101529722E+02
0.256294602379985E+02
0.259101718934952E+02
0.262004169307720E+02
0.264975586982298E+02
0.267988750038077E+02
0.240752328190030E+02
0.240931030039382E+02
0.241384710964964E+02
0.242110346012119E+02
0.243102469242165E+02
0.244353211541735E+02
0.245852355234263E+02
0.247587405653918E+02
0.249543679887599E+02
0.251704412903803E+02
0.254050881261750E+02
0.256562544524740E+02
0.259217204384670E+02
0.261991181338255E+02
0.264859508540048E+02
0.267796142195444E+02
0.270774187553326E+02
0.243741368518459E+02
0.243918190429550E+02
0.244366755771028E+02
0.245084084136054E+02
0.246064786442342E+02
0.247301101791063E+02
0.248782950770875E+02
0.250498005390385E+02
0.252431775872727E+02
0.254567714563455E+02
0.256887337180968E+02
0.259370361571770E+02
0.261994864017357E+02
0.264737452973741E+02
0.267573459908828E+02
0.270477146639796E+02
0.273421928267189E+02
0.246544155719941E+02
0.246719219786152E+02
0.247163002880564E+02
0.247872566200181E+02
0.248842592450045E+02
0.250065421815901E+02
0.251531104048993E+02
0.253227466867666E+02
0.255140200935563E+02
0.257252961697749E+02
0.259547488337282E+02
0.262003740050198E+02
0.264600049722790E+02
0.267313294929837E+02
0.270119085956359E+02
0.272991970281324E+02
0.275905652654559E+02
0.249132918088327E+02
0.249306362781117E+02
0.249745741289562E+02
0.250448153093634E+02
0.251408346964166E+02
0.252618756121222E+02
0.254069549198529E+02
0.255748697238250E+02
0.257642056999807E+02
0.259733470891685E+02
0.262004883819282E+02
0.264436477179453E+02
0.267006820119638E+02
0.269693038014753E+02
0.272470997898696E+02
0.275315510322187E+02
0.278200546799900E+02
0.251481909830568E+02
0.251653888646608E+02
0.252089280855583E+02
0.252785220555509E+02
0.253736516265527E+02
0.254935685348931E+02
0.256373003965783E+02
0.258036572797064E+02
0.259912398845605E+02
0.261984493647604E+02
0.264234988215324E+02
0.266644264971046E+02
0.269191106820830E+02
0.271852863352405E+02
0.274605633924899E+02
0.277424467152224E+02
0.280283575971636E+02
0.253567690793236E+02
0.253738370778445E+02
0.254170231577968E+02
0.254860437934115E+02
0.255803851261632E+02
0.256993063420591E+02
0.258418445774363E+02
0.260068213790213E+02
0.261928507506760E+02
0.263983488224064E+02
0.266215451761192E+02
0.268604958567347E+02
0.271130980862158E+02
0.273771066816908E+02
0.276501521571735E+02
0.279297604617111E+02
0.282133742756451E+02
0.255369384284673E+02
0.255538944449170E+02
0.255967761025862E+02
0.256653025156042E+02
0.257589643826503E+02
0.258770273082932E+02
0.260185366317982E+02
0.261823237904866E+02
0.263670142517095E+02
0.265710370508947E+02
0.267926359722375E+02
0.270298824028759E+02
0.272806898804360E+02
0.275428303374842E+02
0.278139520247367E+02
0.280915990681376E+02
0.283732325836652E+02
0.256868909221611E+02
0.257037538859865E+02
0.257463826143417E+02
0.258144984134685E+02
0.259075957665510E+02
0.260249456086405E+02
0.261656000915844E+02
0.263283988671553E+02
0.265119769237907E+02
0.267147740159659E+02
0.269350457244974E+02
0.271708761804669E+02
0.274201924745766E+02
0.276807807574307E+02
0.279503040145352E+02
0.282263214730208E+02
0.285063095657499E+02
0.258051183104769E+02
0.258219080035396E+02
0.258643375936893E+02
0.259321301122796E+02
0.260247830209557E+02
0.261415714500805E+02
0.262815529134291E+02
0.264435735282202E+02
0.266262757769564E+02
0.268281078513223E+02
0.270473346177928E+02
0.272820502390964E+02
0.275301924748558E+02
0.277895586684375E+02
0.280578234053312E+02
0.283325578015479E+02
0.286112503491188E+02
0.258904292691260E+02
0.259071661431024E+02
0.259494521911421E+02
0.260170116876503E+02
0.261093442405488E+02
0.262257280034160E+02
0.263652243540048E+02
0.265266840688300E+02
0.267087550310650E+02
0.269098915128742E+02
0.271283650728140E+02
0.273622771034895E+02
0.276095730538782E+02
0.278680583344593E+02
0.281354158915681E+02
0.284092254105348E+02
0.286869840757093E+02
0.259419629676304E+02
0.259586679562928E+02
0.260008673569783E+02
0.260682861942666E+02
0.261604253713889E+02
0.262765648665103E+02
0.264157683894228E+02
0.265768895287177E+02
0.267585794271364E+02
0.269592960267601E+02
0.271773149252576E+02
0.274107418790093E+02
0.276575269781755E+02
0.279154805025137E+02
0.281822904450270E+02
0.284555416636500E+02
0.287327365896868E+02
0.259591989213214E+02
0.259758932491624E+02
0.260180636801944E+02
0.260854354897807E+02
0.261775100141817E+02
0.262935678415372E+02
0.264326734612652E+02
0.265936814020706E+02
0.267752438964177E+02
0.269758201133048E+02
0.271936870007564E+02
0.274269517740612E+02
0.276735660750446E+02
0.279313418114015E+02
0.281979686633950E+02
0.284710332183404E+02
0.287480396617985E+02
0.224088624336864E+02
0.224277907648335E+02
0.224760404783259E+02
0.225532839006784E+02
0.226589310199839E+02
0.227921338068780E+02
0.229517924183487E+02
0.231365632872393E+02
0.233448691019013E+02
0.235749106793100E+02
0.238246807304450E+02
0.240919795083733E+02
0.243744323169025E+02
0.246695088407188E+02
0.249745442365908E+02
0.252867618997294E+02
0.256032977901635E+02
0.227542950191599E+02
0.227730025834582E+02
0.228206507751643E+02
0.228969171882644E+02
0.230012208914588E+02
0.231327266357529E+02
0.232903509023817E+02
0.234727697967016E+02
0.236784287959081E+02
0.239055543578124E+02
0.241521673938169E+02
0.244160986011600E+02
0.246950056371162E+02
0.249863921009425E+02
0.252876282679861E+02
0.255959734947211E+02
0.259086001840117E+02
0.230969449812274E+02
0.231154342925501E+02
0.231624879737196E+02
0.232377888187579E+02
0.233407648621843E+02
0.234705934748862E+02
0.236262072584188E+02
0.238063017461018E+02
0.240093449221130E+02
0.242335885696644E+02
0.244770814556603E+02
0.247376843514633E+02
0.250130868771864E+02
0.253008261401015E+02
0.255983071163275E+02
0.259028246991728E+02
0.262115873077999E+02
0.234334904597109E+02
0.234517661160028E+02
0.234982379676917E+02
0.235725938920754E+02
0.236742706895927E+02
0.238024580706800E+02
0.239561044001519E+02
0.241339242101333E+02
0.243344074959936E+02
0.245558308101166E+02
0.247962701650490E+02
0.250536157500870E+02
0.253255884533248E+02
0.256097581644257E+02
0.259035638119077E+02
0.262043350628049E+02
0.265093155826308E+02
0.237606534679193E+02
0.237787220965984E+02
0.238246303150802E+02
0.238980709194237E+02
0.239984891936326E+02
0.241250867912135E+02
0.242768273347318E+02
0.244524437469555E+02
0.246504473311668E+02
0.248691386190844E+02
0.251066200019305E+02
0.253608101529722E+02
0.256294602379985E+02
0.259101718934952E+02
0.262004169307720E+02
0.264975586982298E+02
0.267988750038077E+02
0.240752328190030E+02
0.240931030039382E+02
0.241384710964964E+02
0.242110346012119E+02
0.243102469242165E+02
0.244353211541735E+02
0.245852355234263E+02
0.247587405653918E+02
0.249543679887599E+02
0.251704412903803E+02
0.254050881261750E+02
0.256562544524740E+02
0.259217204384670E+02
0.261991181338255E+02
0.264859508540048E+02
0.267796142195444E+02
0.270774187553326E+02
0.243741368518459E+02
0.243918190429550E+02
0.244366755771028E+02
0.245084084136054E+02
0.246064786442342E+02
0.247301101791063E+02
0.248782950770875E+02
0.250498005390385E+02
0.252431775872727E+02
0.254567714563455E+02
0.256887337180968E+02
0.259370361571770E+02
0.261994864017357E+02
0.264737452973741E+02
0.267573459908828E+02
0.270477146639796E+02
0.273421928267189E+02
0.246544155719941E+02
0.246719219786152E+02
0.247163002880564E+02
0.247872566200181E+02
0.248842592450045E+02
0.250065421815901E+02
0.251531104048993E+02
0.253227466867666E+02
0.255140200935563E+02
0.257252961697749E+02
0.259547488337282E+02
0.262003740050198E+02
0.264600049722790E+02
0.267313294929837E+02
0.270119085956359E+02
0.272991970281324E+02
0.275905652654559E+02
0.249132918088327E+02
0.249306362781117E+02
0.249745741289562E+02
0.250448153093634E+02
0.251408346964166E+02
0.252618756121222E+02
0.254069549198529E+02
0.255748697238250E+02
0.257642056999807E+02
0.259733470891685E+02
0.262004883819282E+02
0.264436477179453E+02
0.267006820119638E+02
0.269693038014753E+02
0.272470997898696E+02
0.275315510322187E+02
0.278200546799900E+02
0.251481909830568E+02
0.251653888646608E+02
0.252089280855583E+02
0.252785220555509E+02
0.253736516265527E+02
0.254935685348931E+02
0.256373003965783E+02
0.258036572797064E+02
0.259912398845605E+02
0.261984493647604E+02
0.264234988215324E+02
0.266644264971046E+02
0.269191106820830E+02
0.271852863352405E+02
0.274605633924899E+02
0.277424467152224E+02
0.280283575971636E+02
0.253567690793236E+02
0.253738370778445E+02
0.254170231577968E+02
0.254860437934115E+02
0.255803851261632E+02
0.256993063420591E+02
0.258418445774363E+02
0.260068213790213E+02
0.261928507506760E+02
0.263983488224064E+02
0.266215451761192E+02
0.268604958567347E+02
0.271130980862158E+02
0.273771066816908E+02
0.276501521571735E+02
0.279297604617111E+02
0.282133742756451E+02
0.255369384284673E+02
0.255538944449170E+02
0.255967761025862E+02
0.256653025156042E+02
0.257589643826503E+02
0.258770273082932E+02
0.260185366317982E+02
0.261823237904866E+02
0.263670142517095E+02
0.265710370508947E+02
0.267926359722375E+02
0.270298824028759E+02
0.272806898804360E+02
0.275428303374842E+02
0.278139520247367E+02
0.280915990681376E+02
0.283732325836652E+02
0.256868909221611E+02
0.257037538859865E+02
0.257463826143417E+02
0.258144984134685E+02
0.259075957665510E+02
0.260249456086405E+02
0.261656000915844E+02
0.263283988671553E+02
0.265119769237907E+02
0.267147740159659E+02
0.269350457244974E+02
0.271708761804669E+02
0.274201924745766E+02
0.276807807574307E+02
0.279503040145352E+02
0.282263214730208E+02
0.285063095657499E+02
0.258051183104769E+02
0.258219080035396E+02
0.258643375936893E+02
0.259321301122796E+02
0.260247830209557E+02
0.261415714500805E+02
0.262815529134291E+02
0.264435735282202E+02
0.266262757769564E+02
0.268281078513223E+02
0.270473346177928E+02
0.272820502390964E+02
0.275301924748558E+02
0.277895586684375E+02
0.280578234053312E+02
0.283325578015479E+02
0.286112503491188E+02
0.258904292691260E+02
0.259071661431024E+02
0.259494521911421E+02
0.260170116876503E+02
0.261093442405488E+02
0.262257280034160E+02
0.263652243540048E+02
0.265266840688300E+02
0.267087550310650E+02
0.269098915128742E+02
0.271283650728140E+02
0.273622771034895E+02
0.276095730538782E+02
0.278680583344593E+02
0.281354158915681E+02
0.284092254105348E+02
0.286869840757093E+02
0.259419629676304E+02
0.259586679562928E+02
0.260008673569783E+02
0.260682861942666E+02
0.261604253713889E+02
0.262765648665103E+02
0.264157683894228E+02
0.265768895287177E+02
0.267585794271364E+02
0.269592960267601E+02
0.271773149252576E+02
0.274107418790093E+02
0.276575269781755E+02
0.279154805025137E+02
0.281822904450270E+02
0.284555416636500E+02
0.287327365896868E+02
0.259591989213214E+02
0.259758932491624E+02
0.260180636801944E+02
0.260854354897807E+02
0.261775100141817E+02
0.262935678415372E+02
0.264326734612652E+02
0.265936814020706E+02
0.267752438964177E+02
0.269758201133048E+02
0.271936870007564E+02
0.274269517740612E+02
0.276735660750446E+02
0.279313418114015E+02
0.281979686633950E+02
0.284710332183404E+02
0.287480396617985E+02
0.224088624336864E+02
0.224277907648335E+02
0.224760404783259E+02
0.225532839006784E+02
0.226589310199839E+02
0.227921338068780E+02
0.229517924183487E+02
0.231365632872393E+02
0.233448691019013E+02
0.235749106793100E+02
0.238246807304450E+02
0.240919795083733E+02
0.243744323169025E+02
0.246695088407188E+02
0.249745442365908E+02
0.252867618997294E+02
0.256032977901635E+02
0.227542950191599E+02
0.227730025834582E+02
0.228206507751643E+02
0.228969171882644E+02
0.230012208914588E+02
0.231327266357529E+02
0.232903509023817E+02
0.234727697967016E+02
0.236784287959081E+02
0.239055543578124E+02
0.241521673938169E+02
0.244160986011600E+02
0.246950056371162E+02
0.249863921009425E+02
0.252876282679861E+02
0.255959734947211E+02
0.259086001840117E+02
0.230969449812274E+02
0.231154342925501E+02
0.231624879737196E+02
0.232377888187579E+02
0.233407648621843E+02
0.234705934748862E+02
0.236262072584188E+02
0.238063017461018E+02
0.240093449221130E+02
0.242335885696644E+02
0.244770814556603E+02
0.247376843514633E+02
0.250130868771864E+02
0.253008261401015E+02
0.255983071163275E+02
0.259028246991728E+02
0.262115873077999E+02
0.234334904597109E+02
0.234517661160028E+02
0.234982379676917E+02
0.235725938920754E+02
0.236742706895927E+02
0.238024580706800E+02
0.239561044001519E+02
0.241339242101333E+02
0.243344074959936E+02
0.245558308101166E+02
0.247962701650490E+02
0.250536157500870E+02
0.253255884533248E+02
0.256097581644257E+02
0.259035638119077E+02
0.262043350628049E+02
0.265093155826308E+02
0.237606534679193E+02
0.237787220965984E+02
0.238246303150802E+02
0.238980709194237E+02
0.239984891936326E+02
0.241250867912135E+02
0.242768273347318E+02
0.244524437469555E+02
0.246504473311668E+02
0.248691386190844E+02
0.251066200019305E+02
0.253608101529722E+02
0.256294602379985E+02
0.259101718934952E+02
0.262004169307720E+02
0.264975586982298E+02
0.267988750038077E+02
0.240752328190030E+02
0.240931030039382E+02
0.241384710964964E+02
0.242110346012119E+02
0.243102469242165E+02
0.244353211541735E+02
0.245852355234263E+02
0.247587405653918E+02
0.249543679887599E+02
0.251704412903803E+02
0.254050881261750E+02
0.256562544524740E+02
0.259217204384670E+02
0.261991181338255E+02
0.264859508540048E+02
0.267796142195444E+02
0.270774187553326E+02
0.243741368518459E+02
0.243918190429550E+02
0.244366755771028E+02
0.245084084136054E+02
0.246064786442342E+02
0.247301101791063E+02
0.248782950770875E+02
0.250498005390385E+02
0.252431775872727E+02
0.254567714563455E+02
0.256887337180968E+02
0.259370361571770E+02
0.261994864017357E+02
0.264737452973741E+02
0.267573459908828E+02
0.270477146639796E+02
0.273421928267189E+02
0.246544155719941E+02
0.246719219786152E+02
0.247163002880564E+02
0.247872566200181E+02
0.248842592450045E+02
0.250065421815901E+02
0.251531104048993E+02
0.253227466867666E+02
0.255140200935563E+02
0.257252961697749E+02
0.259547488337282E+02
0.262003740050198E+02
0.264600049722790E+02
0.267313294929837E+02
0.270119085956359E+02
0.272991970281324E+02
0.275905652654559E+02
0.249132918088327E+02
0.249306362781117E+02
0.249745741289562E+02
0.250448153093634E+02
0.251408346964166E+02
0.252618756121222E+02
0.254069549198529E+02
0.255748697238250E+02
0.257642056999807E+02
0.259733470891685E+02
0.262004883819282E+02
0.264436477179453E+02
0.267006820119638E+02
0.269693038014753E+02
0.272470997898696E+02
0.275315510322187E+02
0.278200546799900E+02
0.251481909830568E+02
0.251653888646608E+02
0.252089280855583E+02
0.252785220555509E+02
0.253736516265527E+02
0.254935685348931E+02
0.256373003965783E+02
0.258036572797064E+02
0.259912398845605E+02
0.261984493647604E+02
0.264234988215324E+02
0.266644264971046E+02
0.269191106820830E+02
0.271852863352405E+02
0.274605633924899E+02
0.277424467152224E+02
0.280283575971636E+02
0.253567690793236E+02
0.253738370778445E+02
0.254170231577968E+02
0.254860437934115E+02
0.255803851261632E+02
0.256993063420591E+02
0.258418445774363E+02
0.260068213790213E+02
0.261928507506760E+02
0.263983488224064E+02
0.266215451761192E+02
0.268604958567347E+02
0.271130980862158E+02
0.273771066816908E+02
0.276501521571735E+02
0.279297604617111E+02
0.282133742756451E+02
0.255369384284673E+02
0.255538944449170E+02
0.255967761025862E+02
0.256653025156042E+02
0.257589643826503E+02
0.258770273082932E+02
0.260185366317982E+02
0.261823237904866E+02
0.263670142517095E+02
0.265710370508947E+02
0.267926359722375E+02
0.270298824028759E+02
0.272806898804360E+02
0.275428303374842E+02
0.278139520247367E+02
0.280915990681376E+02
0.283732325836652E+02
0.256868909221611E+02
0.257037538859865E+02
0.257463826143417E+02
0.258144984134685E+02
0.259075957665510E+02
0.260249456086405E+02
0.261656000915844E+02
0.263283988671553E+02
0.265119769237907E+02
0.267147740159659E+02
0.269350457244974E+02
0.271708761804669E+02
0.274201924745766E+02
0.276807807574307E+02
0.279503040145352E+02
0.282263214730208E+02
0.285063095657499E+02
0.258051183104769E+02
0.258219080035396E+02
0.258643375936893E+02
0.259321301122796E+02
0.260247830209557E+02
0.261415714500805E+02
0.262815529134291E+02
0.264435735282202E+02
0.266262757769564E+02
0.268281078513223E+02
0.270473346177928E+02
0.272820502390964E+02
0.275301924748558E+02
0.277895586684375E+02
0.280578234053312E+02
0.283325578015479E+02
0.286112503491188E+02
0.258904292691260E+02
0.259071661431024E+02
0.259494521911421E+02
0.260170116876503E+02
0.261093442405488E+02
0.262257280034160E+02
0.263652243540048E+02
0.265266840688300E+02
0.267087550310650E+02
0.269098915128742E+02
0.271283650728140E+02
0.273622771034895E+02
0.276095730538782E+02
0.278680583344593E+02
0.281354158915681E+02
0.284092254105348E+02
0.286869840757093E+02
0.259419629676304E+02
0.259586679562928E+02
0.260008673569783E+02
0.260682861942666E+02
0.261604253713889E+02
0.262765648665103E+02
0.264157683894228E+02
0.265768895287177E+02
0.267585794271364E+02
0.269592960267601E+02
0.271773149252576E+02
0.274107418790093E+02
0.276575269781755E+02
0.279154805025137E+02
0.281822904450270E+02
0.284555416636500E+02
0.287327365896868E+02
0.259591989213214E+02
0.259758932491624E+02
0.260180636801944E+02
0.260854354897807E+02
0.261775100141817E+02
0.262935678415372E+02
0.264326734612652E+02
0.265936814020706E+02
0.267752438964177E+02
0.269758201133048E+02
0.271936870007564E+02
0.274269517740612E+02
0.276735660750446E+02
0.279313418114015E+02
0.281979686633950E+02
0.284710332183404E+02
0.287480396617985E+02
0.224088624336864E+02
0.224277907648335E+02
0.224760404783259E+02
0.225532839006784E+02
0.226589310199839E+02
0.227921338068780E+02
0.229517924183487E+02
0.231365632872393E+02
0.233448691019013E+02
0.235749106793100E+02
0.238246807304450E+02
0.240919795083733E+02
0.243744323169025E+02
0.246695088407188E+02
0.249745442365908E+02
0.252867618997294E+02
0.256032977901635E+02
0.227542950191599E+02
0.227730025834582E+02
0.228206507751643E+02
0.228969171882644E+02
0.230012208914588E+02
0.231327266357529E+02
0.232903509023817E+02
0.234727697967016E+02
0.236784287959081E+02
0.239055543578124E+02
0.241521673938169E+02
0.244160986011600E+02
0.246950056371162E+02
0.249863921009425E+02
0.252876282679861E+02
0.255959734947211E+02
0.259086001840117E+02
0.230969449812274E+02
0.231154342925501E+02
0.231624879737196E+02
0.232377888187579E+02
0.233407648621843E+02
0.234705934748862E+02
0.236262072584188E+02
0.238063017461018E+02
0.240093449221130E+02
0.242335885696644E+02
0.244770814556603E+02
0.247376843514633E+02
0.250130868771864E+02
0.253008261401015E+02
0.255983071163275E+02
0.259028246991728E+02
0.262115873077999E+02
0.234334904597109E+02
0.234517661160028E+02
0.234982379676917E+02
0.235725938920754E+02
0.236742706895927E+02
0.238024580706800E+02
0.239561044001519E+02
0.241339242101333E+02
0.243344074959936E+02
0.245558308101166E+02
0.247962701650490E+02
0.250536157500870E+02
0.253255884533248E+02
0.256097581644257E+02
0.259035638119077E+02
0.262043350628049E+02
0.265093155826308E+02
0.237606534679193E+02
0.237787220965984E+02
0.238246303150802E+02
0.238980709194237E+02
0.239984891936326E+02
0.241250867912135E+02
0.242768273347318E+02
0.244524437469555E+02
0.246504473311668E+02
0.248691386190844E+02
0.251066200019305E+02
0.253608101529722E+02
0.256294602379985E+02
0.259101718934952E+02
0.262004169307720E+02
0.264975586982298E+02
0.267988750038077E+02
0.240752328190030E+02
0.240931030039382E+02
0.241384710964964E+02
0.242110346012119E+02
0.243102469242165E+02
0.244353211541735E+02
0.245852355234263E+02
0.247587405653918E+02
0.249543679887599E+02
0.251704412903803E+02
0.254050881261750E+02
0.256562544524740E+02
0.259217204384670E+02
0.261991181338255E+02
0.264859508540048E+02
0.267796142195444E+02
0.270774187553326E+02
0.243741368518459E+02
0.243918190429550E+02
0.244366755771028E+02
0.245084084136054E+02
0.246064786442342E+02
0.247301101791063E+02
0.248782950770875E+02
0.250498005390385E+02
0.252431775872727E+02
0.254567714563455E+02
0.256887337180968E+02
0.259370361571770E+02
0.261994864017357E+02
0.264737452973741E+02
0.267573459908828E+02
0.270477146639796E+02
0.273421928267189E+02
0.246544155719941E+02
0.246719219786152E+02
0.247163002880564E+02
0.247872566200181E+02
0.248842592450045E+02
0.250065421815901E+02
0.251531104048993E+02
0.253227466867666E+02
0.255140200935563E+02
0.257252961697749E+02
0.259547488337282E+02
0.262003740050198E+02
0.264600049722790E+02
0.267313294929837E+02
0.270119085956359E+02
0.272991970281324E+02
0.275905652654559E+02
0.249132918088327E+02
0.249306362781117E+02
0.249745741289562E+02
0.250448153093634E+02
0.251408346964166E+02
0.252618756121222E+02
0.254069549198529E+02
0.255748697238250E+02
0.257642056999807E+02
0.259733470891685E+02
0.262004883819282E+02
0.264436477179453E+02
0.267006820119638E+02
0.269693038014753E+02
0.272470997898696E+02
0.275315510322187E+02
0.278200546799900E+02
0.251481909830568E+02
0.251653888646608E+02
0.252089280855583E+02
0.252785220555509E+02
0.253736516265527E+02
0.254935685348931E+02
0.256373003965783E+02
0.258036572797064E+02
0.259912398845605E+02
0.261984493647604E+02
0.264234988215324E+02
0.266644264971046E+02
0.269191106820830E+02
0.271852863352405E+02
0.274605633924899E+02
0.277424467152224E+02
0.280283575971636E+02
0.253567690793236E+02
0.253738370778445E+02
0.254170231577968E+02
0.254860437934115E+02
0.255803851261632E+02
0.256993063420591E+02
0.258418445774363E+02
0.260068213790213E+02
0.261928507506760E+02
0.263983488224064E+02
0.266215451761192E+02
0.268604958567347E+02
0.271130980862158E+02
0.273771066816908E+02
0.276501521571735E+02
0.279297604617111E+02
0.282133742756451E+02
0.255369384284673E+02
0.255538944449170E+02
0.255967761025862E+02
0.256653025156042E+02
0.257589643826503E+02
0.258770273082932E+02
0.260185366317982E+02
0.261823237904866E+02
0.263670142517095E+02
0.265710370508947E+02
0.267926359722375E+02
0.270298824028759E+02
0.272806898804360E+02
0.275428303374842E+02
0.278139520247367E+02
0.280915990681376E+02
0.283732325836652E+02
0.256868909221611E+02
0.257037538859865E+02
0.257463826143417E+02
0.258144984134685E+02
0.259075957665510E+02
0.260249456086405E+02
0.261656000915844E+02
0.263283988671553E+02
0.265119769237907E+02
0.267147740159659E+02
0.269350457244974E+02
0.271708761804669E+02
0.274201924745766E+02
0.276807807574307E+02
0.279503040145352E+02
0.282263214730208E+02
0.285063095657499E+02
0.258051183104769E+02
0.258219080035396E+02
0.258643375936893E+02
0.259321301122796E+02
0.260247830209557E+02
0.261415714500805E+02
0.262815529134291E+02
0.264435735282202E+02
0.266262757769564E+02
0.268281078513223E+02
0.270473346177928E+02
0.272820502390964E+02
0.275301924748558E+02
0.277895586684375E+02
0.280578234053312E+02
0.283325578015479E+02
0.286112503491188E+02
0.258904292691260E+02
0.259071661431024E+02
0.259494521911421E+02
0.260170116876503E+02
0.261093442405488E+02
0.262257280034160E+02
0.263652243540048E+02
0.265266840688300E+02
0.267087550310650E+02
0.269098915128742E+02
0.271283650728140E+02
0.273622771034895E+02
0.276095730538782E+02
0.278680583344593E+02
0.281354158915681E+02
0.284092254105348E+02
0.286869840757093E+02
0.259419629676304E+02
0.259586679562928E+02
0.260008673569783E+02
0.260682861942666E+02
0.261604253713889E+02
0.262765648665103E+02
0.264157683894228E+02
0.265768895287177E+02
0.267585794271364E+02
0.269592960267601E+02
0.271773149252576E+02
0.274107418790093E+02
0.276575269781755E+02
0.279154805025137E+02
0.281822904450270E+02
0.284555416636500E+02
0.287327365896868E+02
0.259591989213214E+02
0.259758932491624E+02
0.260180636801944E+02
0.260854354897807E+02
0.261775100141817E+02
0.262935678415372E+02
0.264326734612652E+02
0.265936814020706E+02
0.267752438964177E+02
0.269758201133048E+02
0.271936870007564E+02
0.274269517740612E+02
0.276735660750446E+02
0.279313418114015E+02
0.281979686633950E+02
0.284710332183404E+02
0.287480396617985E+02
</DataArray>
</PointData>
</Piece>
</RectilinearGrid>
</VTKFile>
