<?xml version="1.0"?>
<VTKFile type="RectilinearGrid" version="0.1" byte_order="LittleEndian">
<RectilinearGrid WholeExtent="0   63    0   63    0    3">
<Piece Extent="47   63    0   15    0    3">
<Coordinates>
<DataArray Name="x" type="Float32" format="ascii">
0.470000000000000E+01
0.480000000000000E+01
0.490000000000000E+01
0.500000000000000E+01
0.510000000000000E+01
0.520000000000000E+01
0.530000000000000E+01
0.540000000000000E+01
0.550000000000000E+01
0.560000000000000E+01
0.570000000000000E+01
0.580000000000000E+01
0.590000000000000E+01
0.600000000000000E+01
0.610000000000000E+01
0.620000000000000E+01
0.630000000000000E+01
</DataArray>
<DataArray Name="y" type="Float32" format="ascii">
0.000000000000000E+00
0.100000000000000E+00
0.200000000000000E+00
0.300000000000000E+00
0.400000000000000E+00
0.500000000000000E+00
0.600000000000000E+00
0.700000000000000E+00
0.800000000000000E+00
0.900000000000000E+00
0.100000000000000E+01
0.110000000000000E+01
0.120000000000000E+01
0.130000000000000E+01
0.140000000000000E+01
0.150000000000000E+01
</DataArray>
<DataArray Name="z" type="Float32" format="ascii">
0.000000000000000E+00
0.100000000000000E+00
0.200000000000000E+00
0.300000000000000E+00
</DataArray>
</Coordinates>
<PointData Scalars="c">
<DataArray type="Float32" Name="c" format="ascii">
0.295161641273712E+02
0.298520866614213E+02
0.301876037736302E+02
0.305195289801922E+02
0.308446552117043E+02
0.311597885654265E+02
0.314617838752984E+02
0.317475815899551E+02
0.320142453580431E+02
0.322589996430661E+02
0.324792666312280E+02
0.326727016591633E+02
0.328372263770699E+02
0.329710588785532E+02
0.330727400721766E+02
0.331411556406923E+02
0.331755530302452E+02
0.294572736623723E+02
0.297940680979608E+02
0.301304481674812E+02
0.304632194609675E+02
0.307891672109910E+02
0.311050901084945E+02
0.314078359315604E+02
0.316943384772689E+02
0.319616551959435E+02
0.322070048500597E+02
0.324278044613677E+02
0.326217047732179E+02
0.327866234437117E+02
0.329207752010852E+02
0.330226982364103E+02
0.330912761796611E+02
0.331257551014969E+02
0.293598350332237E+02
0.296980743310987E+02
0.300358844114782E+02
0.303700577310508E+02
0.306973667681318E+02
0.310145979437521E+02
0.313185873476507E+02
0.316062577591981E+02
0.318746563625416E+02
0.321209924783339E+02
0.323426745757404E+02
0.325373457918869E+02
0.327029171745528E+02
0.328375978796901E+02
0.329399215990070E+02
0.330087685637928E+02
0.330433825674343E+02
0.292249056720785E+02
0.295651503797970E+02
0.299049451957759E+02
0.302410643510585E+02
0.305702626266202E+02
0.308893094203419E+02
0.311950246076753E+02
0.314843156858526E+02
0.317542156009402E+02
0.320019205802291E+02
0.322248272338716E+02
0.324205681531852E+02
0.325870452216927E+02
0.327224598707381E+02
0.328253395551398E+02
0.328945597952520E+02
0.329293612280317E+02
0.290539446846072E+02
0.293967380662851E+02
0.297390551791566E+02
0.300776470961608E+02
0.304092461151796E+02
0.307306000110766E+02
0.310385080670602E+02
0.313298583750249E+02
0.316016658041962E+02
0.318511099607670E+02
0.320755724027309E+02
0.322726723376864E+02
0.324403000200468E+02
0.325766470798427E+02
0.326802330588920E+02
0.327499275009677E+02
0.327849670387691E+02
0.288487921782668E+02
0.291946554406936E+02
0.295400105117429E+02
0.298815805775843E+02
0.302160708676950E+02
0.305402031293081E+02
0.308507518637055E+02
0.311445818137975E+02
0.314186861023799E+02
0.316702243440219E+02
0.318965599951882E+02
0.320952961708293E+02
0.322643091443552E+02
0.324017787636339E+02
0.325062150591991E+02
0.325764803916410E+02
0.326118065812601E+02
0.286116435520810E+02
0.289610711966100E+02
0.293099533783398E+02
0.296549809144498E+02
0.299928276228732E+02
0.303201850542922E+02
0.306337989654492E+02
0.309305070230033E+02
0.312072771374421E+02
0.314612457503605E+02
0.316897553402192E+02
0.318903903754063E+02
0.320610109321241E+02
0.321997832103217E+02
0.323052062243776E+02
0.323761340159457E+02
0.324117928323973E+02
0.283450193499575E+02
0.286984746809321E+02
0.290513421669897E+02
0.294002760615936E+02
0.297419147102001E+02
0.300729155723915E+02
0.303899919618248E+02
0.306899509930334E+02
0.309697321347801E+02
0.312264456937393E+02
0.314574104942625E+02
0.316601899837842E+02
0.318326259821419E+02
0.319728693087496E+02
0.320794065649721E+02
0.321510824196676E+02
0.321871168417683E+02
0.280517313625611E+02
0.284096421846054E+02
0.287669179507356E+02
0.291201724826064E+02
0.294660049125003E+02
0.298010350253257E+02
0.301219402920638E+02
0.304254940835433E+02
0.307086044645197E+02
0.309683528924274E+02
0.312020320873488E+02
0.314071823036514E+02
0.315816252224799E+02
0.317234946999155E+02
0.318312636489366E+02
0.319037664038179E+02
0.319402160113832E+02
0.277348457197574E+02
0.280976002579787E+02
0.284596680278696E+02
0.288176189147278E+02
0.291680094529091E+02
0.295074185142723E+02
0.298324846589659E+02
0.301399446373336E+02
0.304266724432984E+02
0.306897182443234E+02
0.309263464554493E+02
0.311340721889290E+02
0.313106952997350E+02
0.314543312627943E+02
0.315634381610245E+02
0.316368391336145E+02
0.316737397296176E+02
0.273976437455549E+02
0.277655868244907E+02
0.281327872959819E+02
0.284957680023172E+02
0.288510398841888E+02
0.291951380387641E+02
0.295246594084157E+02
0.298363015888519E+02
0.301269021575122E+02
0.303934778482098E+02
0.306332628406561E+02
0.308437453976414E+02
0.310227020714293E+02
0.311682287164398E+02
0.312787675884011E+02
0.313531298803618E+02
0.313905131414049E+02
0.270435813505959E+02
0.274170108694789E+02
0.277896382381470E+02
0.281579365785910E+02
0.285183686612336E+02
0.288674233521937E+02
0.292016536571380E+02
0.295177158505180E+02
0.298124090916883E+02
0.300827148549428E+02
0.303258354434210E+02
0.305392308211150E+02
0.307206529860114E+02
0.308681771228525E+02
0.309802288169754E+02
0.310556066807247E+02
0.310934998391731E+02
0.266762477151690E+02
0.270554114586311E+02
0.274337102771384E+02
0.278075653526941E+02
0.281733891548202E+02
0.285276222927832E+02
0.288667719281802E+02
0.291874512368370E+02
0.294864193222883E+02
0.297606209091000E+02
0.300072250875013E+02
0.302236623452118E+02
0.304076591111782E+02
0.305572690513080E+02
0.306709003991161E+02
0.307473386740340E+02
0.307857642351451E+02
0.262993239711408E+02
0.266844167956832E+02
0.270685792083062E+02
0.274481787136000E+02
0.278195758187837E+02
0.281791613027240E+02
0.285233950071982E+02
0.288488456396137E+02
0.291522309903741E+02
0.294304578945515E+02
0.296806612110406E+02
0.299002410569381E+02
0.300868975237430E+02
0.302386621172613E+02
0.303539252057637E+02
0.304314588305585E+02
0.304704343278985E+02
0.259165425277737E+02
0.263077039650089E+02
0.266978673572926E+02
0.270833452973917E+02
0.274604451574068E+02
0.278255067823749E+02
0.281749416664192E+02
0.285052731010246E+02
0.288131766997007E+02
0.290955206302634E+02
0.293494048298050E+02
0.295721984421545E+02
0.297615747064961E+02
0.299155425410153E+02
0.300324741079227E+02
0.301111277155832E+02
0.301506655079490E+02
0.255316476083809E+02
0.259289599260154E+02
0.263252050293424E+02
0.267166398844099E+02
0.270995180591300E+02
0.274701278451586E+02
0.278248318213776E+02
0.281601073490494E+02
0.284725874041107E+02
0.287591010795775E+02
0.290167130352045E+02
0.292427611364370E+02
0.294348915135849E+02
0.295910902872436E+02
0.297097112482782E+02
0.297894988498013E+02
0.298296059627453E+02
0.295161641273712E+02
0.298520866614213E+02
0.301876037736302E+02
0.305195289801922E+02
0.308446552117043E+02
0.311597885654265E+02
0.314617838752984E+02
0.317475815899551E+02
0.320142453580431E+02
0.322589996430661E+02
0.324792666312280E+02
0.326727016591633E+02
0.328372263770699E+02
0.329710588785532E+02
0.330727400721766E+02
0.331411556406923E+02
0.331755530302452E+02
0.294572736623723E+02
0.297940680979608E+02
0.301304481674812E+02
0.304632194609675E+02
0.307891672109910E+02
0.311050901084945E+02
0.314078359315604E+02
0.316943384772689E+02
0.319616551959435E+02
0.322070048500597E+02
0.324278044613677E+02
0.326217047732179E+02
0.327866234437117E+02
0.329207752010852E+02
0.330226982364103E+02
0.330912761796611E+02
0.331257551014969E+02
0.293598350332237E+02
0.296980743310987E+02
0.300358844114782E+02
0.303700577310508E+02
0.306973667681318E+02
0.310145979437521E+02
0.313185873476507E+02
0.316062577591981E+02
0.318746563625416E+02
0.321209924783339E+02
0.323426745757404E+02
0.325373457918869E+02
0.327029171745528E+02
0.328375978796901E+02
0.329399215990070E+02
0.330087685637928E+02
0.330433825674343E+02
0.292249056720785E+02
0.295651503797970E+02
0.299049451957759E+02
0.302410643510585E+02
0.305702626266202E+02
0.308893094203419E+02
0.311950246076753E+02
0.314843156858526E+02
0.317542156009402E+02
0.320019205802291E+02
0.322248272338716E+02
0.324205681531852E+02
0.325870452216927E+02
0.327224598707381E+02
0.328253395551398E+02
0.328945597952520E+02
0.329293612280317E+02
0.290539446846072E+02
0.293967380662851E+02
0.297390551791566E+02
0.300776470961608E+02
0.304092461151796E+02
0.307306000110766E+02
0.310385080670602E+02
0.313298583750249E+02
0.316016658041962E+02
0.318511099607670E+02
0.320755724027309E+02
0.322726723376864E+02
0.324403000200468E+02
0.325766470798427E+02
0.326802330588920E+02
0.327499275009677E+02
0.327849670387691E+02
0.288487921782668E+02
0.291946554406936E+02
0.295400105117429E+02
0.298815805775843E+02
0.302160708676950E+02
0.305402031293081E+02
0.308507518637055E+02
0.311445818137975E+02
0.314186861023799E+02
0.316702243440219E+02
0.318965599951882E+02
0.320952961708293E+02
0.322643091443552E+02
0.324017787636339E+02
0.325062150591991E+02
0.325764803916410E+02
0.326118065812601E+02
0.286116435520810E+02
0.289610711966100E+02
0.293099533783398E+02
0.296549809144498E+02
0.299928276228732E+02
0.303201850542922E+02
0.306337989654492E+02
0.309305070230033E+02
0.312072771374421E+02
0.314612457503605E+02
0.316897553402192E+02
0.318903903754063E+02
0.320610109321241E+02
0.321997832103217E+02
0.323052062243776E+02
0.323761340159457E+02
0.324117928323973E+02
0.283450193499575E+02
0.286984746809321E+02
0.290513421669897E+02
0.294002760615936E+02
0.297419147102001E+02
0.300729155723915E+02
0.303899919618248E+02
0.306899509930334E+02
0.309697321347801E+02
0.312264456937393E+02
0.314574104942625E+02
0.316601899837842E+02
0.318326259821419E+02
0.319728693087496E+02
0.320794065649721E+02
0.321510824196676E+02
0.321871168417683E+02
0.280517313625611E+02
0.284096421846054E+02
0.287669179507356E+02
0.291201724826064E+02
0.294660049125003E+02
0.298010350253257E+02
0.301219402920638E+02
0.304254940835433E+02
0.307086044645197E+02
0.309683528924274E+02
0.312020320873488E+02
0.314071823036514E+02
0.315816252224799E+02
0.317234946999155E+02
0.318312636489366E+02
0.319037664038179E+02
0.319402160113832E+02
0.277348457197574E+02
0.280976002579787E+02
0.284596680278696E+02
0.288176189147278E+02
0.291680094529091E+02
0.295074185142723E+02
0.298324846589659E+02
0.301399446373336E+02
0.304266724432984E+02
0.306897182443234E+02
0.309263464554493E+02
0.311340721889290E+02
0.313106952997350E+02
0.314543312627943E+02
0.315634381610245E+02
0.316368391336145E+02
0.316737397296176E+02
0.273976437455549E+02
0.277655868244907E+02
0.281327872959819E+02
0.284957680023172E+02
0.288510398841888E+02
0.291951380387641E+02
0.295246594084157E+02
0.298363015888519E+02
0.301269021575122E+02
0.303934778482098E+02
0.306332628406561E+02
0.308437453976414E+02
0.310227020714293E+02
0.311682287164398E+02
0.312787675884011E+02
0.313531298803618E+02
0.313905131414049E+02
0.270435813505959E+02
0.274170108694789E+02
0.277896382381470E+02
0.281579365785910E+02
0.285183686612336E+02
0.288674233521937E+02
0.292016536571380E+02
0.295177158505180E+02
0.298124090916883E+02
0.300827148549428E+02
0.303258354434210E+02
0.305392308211150E+02
0.307206529860114E+02
0.308681771228525E+02
0.309802288169754E+02
0.310556066807247E+02
0.310934998391731E+02
0.266762477151690E+02
0.270554114586311E+02
0.274337102771384E+02
0.278075653526941E+02
0.281733891548202E+02
0.285276222927832E+02
0.288667719281802E+02
0.291874512368370E+02
0.294864193222883E+02
0.297606209091000E+02
0.300072250875013E+02
0.302236623452118E+02
0.304076591111782E+02
0.305572690513080E+02
0.306709003991161E+02
0.307473386740340E+02
0.307857642351451E+02
0.262993239711408E+02
0.266844167956832E+02
0.270685792083062E+02
0.274481787136000E+02
0.278195758187837E+02
0.281791613027240E+02
0.285233950071982E+02
0.288488456396137E+02
0.291522309903741E+02
0.294304578945515E+02
0.296806612110406E+02
0.299002410569381E+02
0.300868975237430E+02
0.302386621172613E+02
0.303539252057637E+02
0.304314588305585E+02
0.304704343278985E+02
0.259165425277737E+02
0.263077039650089E+02
0.266978673572926E+02
0.270833452973917E+02
0.274604451574068E+02
0.278255067823749E+02
0.281749416664192E+02
0.285052731010246E+02
0.288131766997007E+02
0.290955206302634E+02
0.293494048298050E+02
0.295721984421545E+02
0.297615747064961E+02
0.299155425410153E+02
0.300324741079227E+02
0.301111277155832E+02
0.301506655079490E+02
0.255316476083809E+02
0.259289599260154E+02
0.263252050293424E+02
0.267166398844099E+02
0.270995180591300E+02
0.274701278451586E+02
0.278248318213776E+02
0.281601073490494E+02
0.284725874041107E+02
0.287591010795775E+02
0.290167130352045E+02
0.292427611364370E+02
0.294348915135849E+02
0.295910902872436E+02
0.297097112482782E+02
0.297894988498013E+02
0.298296059627453E+02
0.295161641273712E+02
0.298520866614213E+02
0.301876037736302E+02
0.305195289801922E+02
0.308446552117043E+02
0.311597885654265E+02
0.314617838752984E+02
0.317475815899551E+02
0.320142453580431E+02
0.322589996430661E+02
0.324792666312280E+02
0.326727016591633E+02
0.328372263770699E+02
0.329710588785532E+02
0.330727400721766E+02
0.331411556406923E+02
0.331755530302452E+02
0.294572736623723E+02
0.297940680979608E+02
0.301304481674812E+02
0.304632194609675E+02
0.307891672109910E+02
0.311050901084945E+02
0.314078359315604E+02
0.316943384772689E+02
0.319616551959435E+02
0.322070048500597E+02
0.324278044613677E+02
0.326217047732179E+02
0.327866234437117E+02
0.329207752010852E+02
0.330226982364103E+02
0.330912761796611E+02
0.331257551014969E+02
0.293598350332237E+02
0.296980743310987E+02
0.300358844114782E+02
0.303700577310508E+02
0.306973667681318E+02
0.310145979437521E+02
0.313185873476507E+02
0.316062577591981E+02
0.318746563625416E+02
0.321209924783339E+02
0.323426745757404E+02
0.325373457918869E+02
0.327029171745528E+02
0.328375978796901E+02
0.329399215990070E+02
0.330087685637928E+02
0.330433825674343E+02
0.292249056720785E+02
0.295651503797970E+02
0.299049451957759E+02
0.302410643510585E+02
0.305702626266202E+02
0.308893094203419E+02
0.311950246076753E+02
0.314843156858526E+02
0.317542156009402E+02
0.320019205802291E+02
0.322248272338716E+02
0.324205681531852E+02
0.325870452216927E+02
0.327224598707381E+02
0.328253395551398E+02
0.328945597952520E+02
0.329293612280317E+02
0.290539446846072E+02
0.293967380662851E+02
0.297390551791566E+02
0.300776470961608E+02
0.304092461151796E+02
0.307306000110766E+02
0.310385080670602E+02
0.313298583750249E+02
0.316016658041962E+02
0.318511099607670E+02
0.320755724027309E+02
0.322726723376864E+02
0.324403000200468E+02
0.325766470798427E+02
0.326802330588920E+02
0.327499275009677E+02
0.327849670387691E+02
0.288487921782668E+02
0.291946554406936E+02
0.295400105117429E+02
0.298815805775843E+02
0.302160708676950E+02
0.305402031293081E+02
0.308507518637055E+02
0.311445818137975E+02
0.314186861023799E+02
0.316702243440219E+02
0.318965599951882E+02
0.320952961708293E+02
0.322643091443552E+02
0.324017787636339E+02
0.325062150591991E+02
0.325764803916410E+02
0.326118065812601E+02
0.286116435520810E+02
0.289610711966100E+02
0.293099533783398E+02
0.296549809144498E+02
0.299928276228732E+02
0.303201850542922E+02
0.306337989654492E+02
0.309305070230033E+02
0.312072771374421E+02
0.314612457503605E+02
0.316897553402192E+02
0.318903903754063E+02
0.320610109321241E+02
0.321997832103217E+02
0.323052062243776E+02
0.323761340159457E+02
0.324117928323973E+02
0.283450193499575E+02
0.286984746809321E+02
0.290513421669897E+02
0.294002760615936E+02
0.297419147102001E+02
0.300729155723915E+02
0.303899919618248E+02
0.306899509930334E+02
0.309697321347801E+02
0.312264456937393E+02
0.314574104942625E+02
0.316601899837842E+02
0.318326259821419E+02
0.319728693087496E+02
0.320794065649721E+02
0.321510824196676E+02
0.321871168417683E+02
0.280517313625611E+02
0.284096421846054E+02
0.287669179507356E+02
0.291201724826064E+02
0.294660049125003E+02
0.298010350253257E+02
0.301219402920638E+02
0.304254940835433E+02
0.307086044645197E+02
0.309683528924274E+02
0.312020320873488E+02
0.314071823036514E+02
0.315816252224799E+02
0.317234946999155E+02
0.318312636489366E+02
0.319037664038179E+02
0.319402160113832E+02
0.277348457197574E+02
0.280976002579787E+02
0.284596680278696E+02
0.288176189147278E+02
0.291680094529091E+02
0.295074185142723E+02
0.298324846589659E+02
0.301399446373336E+02
0.304266724432984E+02
0.306897182443234E+02
0.309263464554493E+02
0.311340721889290E+02
0.313106952997350E+02
0.314543312627943E+02
0.315634381610245E+02
0.316368391336145E+02
0.316737397296176E+02
0.273976437455549E+02
0.277655868244907E+02
0.281327872959819E+02
0.284957680023172E+02
0.288510398841888E+02
0.291951380387641E+02
0.295246594084157E+02
0.298363015888519E+02
0.301269021575122E+02
0.303934778482098E+02
0.306332628406561E+02
0.308437453976414E+02
0.310227020714293E+02
0.311682287164398E+02
0.312787675884011E+02
0.313531298803618E+02
0.313905131414049E+02
0.270435813505959E+02
0.274170108694789E+02
0.277896382381470E+02
0.281579365785910E+02
0.285183686612336E+02
0.288674233521937E+02
0.292016536571380E+02
0.295177158505180E+02
0.298124090916883E+02
0.300827148549428E+02
0.303258354434210E+02
0.305392308211150E+02
0.307206529860114E+02
0.308681771228525E+02
0.309802288169754E+02
0.310556066807247E+02
0.310934998391731E+02
0.266762477151690E+02
0.270554114586311E+02
0.274337102771384E+02
0.278075653526941E+02
0.281733891548202E+02
0.285276222927832E+02
0.288667719281802E+02
0.291874512368370E+02
0.294864193222883E+02
0.297606209091000E+02
0.300072250875013E+02
0.302236623452118E+02
0.304076591111782E+02
0.305572690513080E+02
0.306709003991161E+02
0.307473386740340E+02
0.307857642351451E+02
0.262993239711408E+02
0.266844167956832E+02
0.270685792083062E+02
0.274481787136000E+02
0.278195758187837E+02
0.281791613027240E+02
0.285233950071982E+02
0.288488456396137E+02
0.291522309903741E+02
0.294304578945515E+02
0.296806612110406E+02
0.299002410569381E+02
0.300868975237430E+02
0.302386621172613E+02
0.303539252057637E+02
0.304314588305585E+02
0.304704343278985E+02
0.259165425277737E+02
0.263077039650089E+02
0.266978673572926E+02
0.270833452973917E+02
0.274604451574068E+02
0.278255067823749E+02
0.281749416664192E+02
0.285052731010246E+02
0.288131766997007E+02
0.290955206302634E+02
0.293494048298050E+02
0.295721984421545E+02
0.297615747064961E+02
0.299155425410153E+02
0.300324741079227E+02
0.301111277155832E+02
0.301506655079490E+02
0.255316476083809E+02
0.259289599260154E+02
0.263252050293424E+02
0.267166398844099E+02
0.270995180591300E+02
0.274701278451586E+02
0.278248318213776E+02
0.281601073490494E+02
0.284725874041107E+02
0.287591010795775E+02
0.290167130352045E+02
0.292427611364370E+02
0.294348915135849E+02
0.295910902872436E+02
0.297097112482782E+02
0.297894988498013E+02
0.298296059627453E+02
0.295161641273712E+02
0.298520866614213E+02
0.301876037736302E+02
0.305195289801922E+02
0.308446552117043E+02
0.311597885654265E+02
0.314617838752984E+02
0.317475815899551E+02
0.320142453580431E+02
0.322589996430661E+02
0.324792666312280E+02
0.326727016591633E+02
0.328372263770699E+02
0.329710588785532E+02
0.330727400721766E+02
0.331411556406923E+02
0.331755530302452E+02
0.294572736623723E+02
0.297940680979608E+02
0.301304481674812E+02
0.304632194609675E+02
0.307891672109910E+02
0.311050901084945E+02
0.314078359315604E+02
0.316943384772689E+02
0.319616551959435E+02
0.322070048500597E+02
0.324278044613677E+02
0.326217047732179E+02
0.327866234437117E+02
0.329207752010852E+02
0.330226982364103E+02
0.330912761796611E+02
0.331257551014969E+02
0.293598350332237E+02
0.296980743310987E+02
0.300358844114782E+02
0.303700577310508E+02
0.306973667681318E+02
0.310145979437521E+02
0.313185873476507E+02
0.316062577591981E+02
0.318746563625416E+02
0.321209924783339E+02
0.323426745757404E+02
0.325373457918869E+02
0.327029171745528E+02
0.328375978796901E+02
0.329399215990070E+02
0.330087685637928E+02
0.330433825674343E+02
0.292249056720785E+02
0.295651503797970E+02
0.299049451957759E+02
0.302410643510585E+02
0.305702626266202E+02
0.308893094203419E+02
0.311950246076753E+02
0.314843156858526E+02
0.317542156009402E+02
0.320019205802291E+02
0.322248272338716E+02
0.324205681531852E+02
0.325870452216927E+02
0.327224598707381E+02
0.328253395551398E+02
0.328945597952520E+02
0.329293612280317E+02
0.290539446846072E+02
0.293967380662851E+02
0.297390551791566E+02
0.300776470961608E+02
0.304092461151796E+02
0.307306000110766E+02
0.310385080670602E+02
0.313298583750249E+02
0.316016658041962E+02
0.318511099607670E+02
0.320755724027309E+02
0.322726723376864E+02
0.324403000200468E+02
0.325766470798427E+02
0.326802330588920E+02
0.327499275009677E+02
0.327849670387691E+02
0.288487921782668E+02
0.291946554406936E+02
0.295400105117429E+02
0.298815805775843E+02
0.302160708676950E+02
0.305402031293081E+02
0.308507518637055E+02
0.311445818137975E+02
0.314186861023799E+02
0.316702243440219E+02
0.318965599951882E+02
0.320952961708293E+02
0.322643091443552E+02
0.324017787636339E+02
0.325062150591991E+02
0.325764803916410E+02
0.326118065812601E+02
0.286116435520810E+02
0.289610711966100E+02
0.293099533783398E+02
0.296549809144498E+02
0.299928276228732E+02
0.303201850542922E+02
0.306337989654492E+02
0.309305070230033E+02
0.312072771374421E+02
0.314612457503605E+02
0.316897553402192E+02
0.318903903754063E+02
0.320610109321241E+02
0.321997832103217E+02
0.323052062243776E+02
0.323761340159457E+02
0.324117928323973E+02
0.283450193499575E+02
0.286984746809321E+02
0.290513421669897E+02
0.294002760615936E+02
0.297419147102001E+02
0.300729155723915E+02
0.303899919618248E+02
0.306899509930334E+02
0.309697321347801E+02
0.312264456937393E+02
0.314574104942625E+02
0.316601899837842E+02
0.318326259821419E+02
0.319728693087496E+02
0.320794065649721E+02
0.321510824196676E+02
0.321871168417683E+02
0.280517313625611E+02
0.284096421846054E+02
0.287669179507356E+02
0.291201724826064E+02
0.294660049125003E+02
0.298010350253257E+02
0.301219402920638E+02
0.304254940835433E+02
0.307086044645197E+02
0.309683528924274E+02
0.312020320873488E+02
0.314071823036514E+02
0.315816252224799E+02
0.317234946999155E+02
0.318312636489366E+02
0.319037664038179E+02
0.319402160113832E+02
0.277348457197574E+02
0.280976002579787E+02
0.284596680278696E+02
0.288176189147278E+02
0.291680094529091E+02
0.295074185142723E+02
0.298324846589659E+02
0.301399446373336E+02
0.304266724432984E+02
0.306897182443234E+02
0.309263464554493E+02
0.311340721889290E+02
0.313106952997350E+02
0.314543312627943E+02
0.315634381610245E+02
0.316368391336145E+02
0.316737397296176E+02
0.273976437455549E+02
0.277655868244907E+02
0.281327872959819E+02
0.284957680023172E+02
0.288510398841888E+02
0.291951380387641E+02
0.295246594084157E+02
0.298363015888519E+02
0.301269021575122E+02
0.303934778482098E+02
0.306332628406561E+02
0.308437453976414E+02
0.310227020714293E+02
0.311682287164398E+02
0.312787675884011E+02
0.313531298803618E+02
0.313905131414049E+02
0.270435813505959E+02
0.274170108694789E+02
0.277896382381470E+02
0.281579365785910E+02
0.285183686612336E+02
0.288674233521937E+02
0.292016536571380E+02
0.295177158505180E+02
0.298124090916883E+02
0.300827148549428E+02
0.303258354434210E+02
0.305392308211150E+02
0.307206529860114E+02
0.308681771228525E+02
0.309802288169754E+02
0.310556066807247E+02
0.310934998391731E+02
0.266762477151690E+02
0.270554114586311E+02
0.274337102771384E+02
0.278075653526941E+02
0.281733891548202E+02
0.285276222927832E+02
0.288667719281802E+02
0.291874512368370E+02
0.294864193222883E+02
0.297606209091000E+02
0.300072250875013E+02
0.302236623452118E+02
0.304076591111782E+02
0.305572690513080E+02
0.306709003991161E+02
0.307473386740340E+02
0.307857642351451E+02
0.262993239711408E+02
0.266844167956832E+02
0.270685792083062E+02
0.274481787136000E+02
0.278195758187837E+02
0.281791613027240E+02
0.285233950071982E+02
0.288488456396137E+02
0.291522309903741E+02
0.294304578945515E+02
0.296806612110406E+02
0.299002410569381E+02
0.300868975237430E+02
0.302386621172613E+02
0.303539252057637E+02
0.304314588305585E+02
0.304704343278985E+02
0.259165425277737E+02
0.263077039650089E+02
0.266978673572926E+02
0.270833452973917E+02
0.274604451574068E+02
0.278255067823749E+02
0.281749416664192E+02
0.285052731010246E+02
0.288131766997007E+02
0.290955206302634E+02
0.293494048298050E+02
0.295721984421545E+02
0.297615747064961E+02
0.299155425410153E+02
0.300324741079227E+02
0.301111277155832E+02
0.301506655079490E+02
0.255316476083809E+02
0.259289599260154E+02
0.263252050293424E+02
0.267166398844099E+02
0.270995180591300E+02
0.274701278451586E+02
0.278248318213776E+02
0.281601073490494E+02
0.284725874041107E+02
0.287591010795775E+02
0.290167130352045E+02
0.292427611364370E+02
0.294348915135849E+02
0.295910902872436E+02
0.297097112482782E+02
0.297894988498013E+02
0.298296059627453E+02
</DataArray>
</PointData>
</Piece>
</RectilinearGrid>
</VTKFile>
