<?xml version="1.0"?>
<VTKFile type="RectilinearGrid" version="0.1" byte_order="LittleEndian">
<RectilinearGrid WholeExtent="0   63    0   63    0    3">
<Piece Extent="15   31   47   63    0    3">
<Coordinates>
<DataArray Name="x" type="Float32" format="ascii">
0.150000000000000E+01
0.160000000000000E+01
0.170000000000000E+01
0.180000000000000E+01
0.190000000000000E+01
0.200000000000000E+01
0.210000000000000E+01
0.220000000000000E+01
0.230000000000000E+01
0.240000000000000E+01
0.250000000000000E+01
0.260000000000000E+01
0.270000000000000E+01
0.280000000000000E+01
0.290000000000000E+01
0.300000000000000E+01
0.310000000000000E+01
</DataArray>
<DataArray Name="y" type="Float32" format="ascii">
0.470000000000000E+01
0.480000000000000E+01
0.490000000000000E+01
0.500000000000000E+01
0.510000000000000E+01
0.520000000000000E+01
0.530000000000000E+01
0.540000000000000E+01
0.550000000000000E+01
0.560000000000000E+01
0.570000000000000E+01
0.580000000000000E+01
0.590000000000000E+01
0.600000000000000E+01
0.610000000000000E+01
0.620000000000000E+01
0.630000000000000E+01
</DataArray>
<DataArray Name="z" type="Float32" format="ascii">
0.000000000000000E+00
0.100000000000000E+00
0.200000000000000E+00
0.300000000000000E+00
</DataArray>
</Coordinates>
<PointData Scalars="c">
<DataArray type="Float32" Name="c" format="ascii">
0.241954526110293E+02
0.235194699225198E+02
0.228677988942541E+02
0.222429950072282E+02
0.216476577591735E+02
0.210844806276276E+02
0.205562672367083E+02
0.200659215045760E+02
0.196164165832434E+02
0.192107455246295E+02
0.188518559204540E+02
0.185425711181522E+02
0.182855017138104E+02
0.180829524791423E+02
0.179368312556658E+02
0.178485672128901E+02
0.178190458675740E+02
0.248938214231197E+02
0.242380680166869E+02
0.236069963371864E+02
0.230030393866706E+02
0.224286455036450E+02
0.218863248714213E+02
0.213786636639661E+02
0.209083140748029E+02
0.204779655826985E+02
0.200903009013896E+02
0.197479392104760E+02
0.194533693074519E+02
0.192088759790438E+02
0.190164638349496E+02
0.188777837365770E+02
0.187940674696725E+02
0.187660762076092E+02
0.256116323669988E+02
0.249754626165163E+02
0.243642359714394E+02
0.237802617548906E+02
0.232258398565168E+02
0.227033048066549E+02
0.222150388706039E+02
0.217634627298613E+02
0.213510094679834E+02
0.209800856341137E+02
0.206530221681568E+02
0.203720177707247E+02
0.201390776295633E+02
0.199559509889199E+02
0.198240715959290E+02
0.197445053409720E+02
0.197179092535948E+02
0.263460009795291E+02
0.257287166032283E+02
0.251365401506477E+02
0.245716582942394E+02
0.240362271413496E+02
0.235324146598366E+02
0.230624134244808E+02
0.226284324547804E+02
0.222326740898200E+02
0.218772998622416E+02
0.215643882304523E+02
0.212958866400583E+02
0.210735604706866E+02
0.208989417344811E+02
0.207732807037279E+02
0.206975037749863E+02
0.206721807000612E+02
0.270934681749502E+02
0.264943264585725E+02
0.259203733152239E+02
0.253736756015638E+02
0.248562517909452E+02
0.243701133374697E+02
0.239172775623506E+02
0.234997609453213E+02
0.231195588936649E+02
0.227786160430192E+02
0.224787899510044E+02
0.222218105150087E+02
0.220092373530534E+02
0.218424175097730E+02
0.217224459995315E+02
0.216501317310239E+02
0.216259711781391E+02
0.278496448376958E+02
0.272678593061791E+02
0.267112711685608E+02
0.261818317454287E+02
0.256814291197730E+02
0.252119288642105E+02
0.247751873855788E+02
0.243730468122084E+02
0.240073175499524E+02
0.236797525868519E+02
0.233920163640586E+02
0.231456503957596E+02
0.229420376003664E+02
0.227823672975814E+02
0.226676028675481E+02
0.225984540402491E+02
0.225753556118905E+02
0.286087832440609E+02
0.280435164121862E+02
0.275033961347735E+02
0.269902636407093E+02
0.265058846780736E+02
0.260519899007688E+02
0.256302888604803E+02
0.252424665205140E+02
0.248901684194093E+02
0.245749785461423E+02
0.242983926753863E+02
0.240617891997324E+02
0.238663991840249E+02
0.237132772688221E+02
0.236032750196770E+02
0.235370182550016E+02
0.235148897271943E+02
0.293633150315785E+02
0.288136632848783E+02
0.282890596020923E+02
0.277912415393913E+02
0.273218611989072E+02
0.268825254721654E+02
0.264748107728439E+02
0.261002611302509E+02
0.257603757382544E+02
0.254565899761177E+02
0.251902525681911E+02
0.249626007830940E+02
0.247747351970842E+02
0.246275953861919E+02
0.245219378343923E+02
0.244583172609866E+02
0.244370724274636E+02
0.301034293277730E+02
0.295684007797690E+02
0.290582860886448E+02
0.285747264287348E+02
0.281192694974509E+02
0.276934097391174E+02
0.272986038428355E+02
0.269362703164280E+02
0.266077791758394E+02
0.263144357056650E+02
0.260574608727682E+02
0.258379701705336E+02
0.256569522508769E+02
0.255152484990864E+02
0.254135345990980E+02
0.253523050423778E+02
0.253318614057414E+02
0.308167969276845E+02
0.302952842631861E+02
0.297985274770009E+02
0.293280794957887E+02
0.288853934043706E+02
0.284718627202337E+02
0.280888376320789E+02
0.277376259209590E+02
0.274194845356690E+02
0.271356057103911E+02
0.268871001239210E+02
0.266749787696952E+02
0.265001347551422E+02
0.263633260188780E+02
0.262651598278356E+02
0.262060798176541E+02
0.261863562256666E+02
0.314885646450200E+02
0.309793163386611E+02
0.304946541304641E+02
0.300360516998555E+02
0.296048779154030E+02
0.292024371932003E+02
0.288299864181084E+02
0.284887370570976E+02
0.281798483639391E+02
0.279044154948805E+02
0.276634549581469E+02
0.274578889733687E+02
0.272885298462025E+02
0.271560652150914E+02
0.270610448891252E+02
0.270038698963061E+02
0.269847842596947E+02
0.321017345037201E+02
0.316033290835636E+02
0.311293400581249E+02
0.306811717710121E+02
0.302601199516054E+02
0.298674121660375E+02
0.295042253405225E+02
0.291716888982423E+02
0.288708793379989E+02
0.286028100097801E+02
0.283684184422522E+02
0.281685527202486E+02
0.280039579264656E+02
0.278752634015277E+02
0.277829714318247E+02
0.277274478758093E+02
0.277089151478490E+02
0.326379958013641E+02
0.321488245821527E+02
0.316839116317013E+02
0.312446028127566E+02
0.308321325385618E+02
0.304476643100131E+02
0.300923087455553E+02
0.297671275642667E+02
0.294731292855707E+02
0.292112603435793E+02
0.289823939136224E+02
0.287873178857587E+02
0.286267229280709E+02
0.285011913152134E+02
0.284111870491523E+02
0.283570477020596E+02
0.283389783280063E+02
0.330789949576366E+02
0.325972584756262E+02
0.321396443805953E+02
0.317074518408495E+02
0.313018665439415E+02
0.309240013050925E+02
0.305749144985020E+02
0.302556147035937E+02
0.299670572750766E+02
0.297101364876834E+02
0.294856755072759E+02
0.292944155742451E+02
0.291370052882975E+02
0.290139906120146E+02
0.289258060601154E+02
0.288727674462246E+02
0.288550664819918E+02
0.334079230964809E+02
0.329316450836138E+02
0.324793850678295E+02
0.320524081591948E+02
0.316518646302511E+02
0.312788305766518E+02
0.309343266386891E+02
0.306193231238061E+02
0.303347371977280E+02
0.300814257599575E+02
0.298601762219331E+02
0.296716965390513E+02
0.295166053482002E+02
0.293954227882935E+02
0.293085624299300E+02
0.292563246467500E+02
0.292388916885905E+02
0.336112017638511E+02
0.331382619629589E+02
0.326892744599592E+02
0.322654836298211E+02
0.318680182338722E+02
0.314979321120127E+02
0.311562230796399E+02
0.308438383369413E+02
0.305616720325185E+02
0.303105585754323E+02
0.300912638936840E+02
0.299044759695579E+02
0.297507954813656E+02
0.296307271057419E+02
0.295446718829253E+02
0.294929209549282E+02
0.294756509167039E+02
0.336799854741575E+02
0.332081693526016E+02
0.327602831042223E+02
0.323375641403226E+02
0.319411340062151E+02
0.315720390839760E+02
0.312312695480334E+02
0.309197648702253E+02
0.306384115075729E+02
0.303880363595470E+02
0.301693981860352E+02
0.299831783095229E+02
0.298299714237146E+02
0.297102770550651E+02
0.296244920718823E+02
0.295729045434934E+02
0.295556891830528E+02
0.241954526110292E+02
0.235194699225198E+02
0.228677988942540E+02
0.222429950072281E+02
0.216476577591735E+02
0.210844806276275E+02
0.205562672367082E+02
0.200659215045760E+02
0.196164165832433E+02
0.192107455246294E+02
0.188518559204539E+02
0.185425711181522E+02
0.182855017138104E+02
0.180829524791423E+02
0.179368312556657E+02
0.178485672128900E+02
0.178190458675739E+02
0.248938214231196E+02
0.242380680166869E+02
0.236069963371863E+02
0.230030393866706E+02
0.224286455036449E+02
0.218863248714213E+02
0.213786636639660E+02
0.209083140748028E+02
0.204779655826984E+02
0.200903009013895E+02
0.197479392104759E+02
0.194533693074519E+02
0.192088759790437E+02
0.190164638349495E+02
0.188777837365769E+02
0.187940674696725E+02
0.187660762076091E+02
0.256116323669988E+02
0.249754626165163E+02
0.243642359714393E+02
0.237802617548905E+02
0.232258398565167E+02
0.227033048066549E+02
0.222150388706038E+02
0.217634627298612E+02
0.213510094679833E+02
0.209800856341136E+02
0.206530221681567E+02
0.203720177707247E+02
0.201390776295632E+02
0.199559509889198E+02
0.198240715959289E+02
0.197445053409719E+02
0.197179092535947E+02
0.263460009795290E+02
0.257287166032282E+02
0.251365401506477E+02
0.245716582942393E+02
0.240362271413495E+02
0.235324146598365E+02
0.230624134244807E+02
0.226284324547803E+02
0.222326740898200E+02
0.218772998622415E+02
0.215643882304522E+02
0.212958866400583E+02
0.210735604706866E+02
0.208989417344810E+02
0.207732807037278E+02
0.206975037749862E+02
0.206721807000611E+02
0.270934681749501E+02
0.264943264585724E+02
0.259203733152238E+02
0.253736756015638E+02
0.248562517909452E+02
0.243701133374696E+02
0.239172775623505E+02
0.234997609453212E+02
0.231195588936649E+02
0.227786160430191E+02
0.224787899510043E+02
0.222218105150086E+02
0.220092373530533E+02
0.218424175097729E+02
0.217224459995314E+02
0.216501317310238E+02
0.216259711781391E+02
0.278496448376957E+02
0.272678593061791E+02
0.267112711685607E+02
0.261818317454287E+02
0.256814291197730E+02
0.252119288642104E+02
0.247751873855788E+02
0.243730468122083E+02
0.240073175499523E+02
0.236797525868519E+02
0.233920163640586E+02
0.231456503957596E+02
0.229420376003663E+02
0.227823672975814E+02
0.226676028675481E+02
0.225984540402490E+02
0.225753556118904E+02
0.286087832440609E+02
0.280435164121862E+02
0.275033961347735E+02
0.269902636407092E+02
0.265058846780735E+02
0.260519899007687E+02
0.256302888604803E+02
0.252424665205139E+02
0.248901684194092E+02
0.245749785461422E+02
0.242983926753863E+02
0.240617891997323E+02
0.238663991840248E+02
0.237132772688220E+02
0.236032750196769E+02
0.235370182550016E+02
0.235148897271943E+02
0.293633150315784E+02
0.288136632848783E+02
0.282890596020923E+02
0.277912415393913E+02
0.273218611989072E+02
0.268825254721653E+02
0.264748107728438E+02
0.261002611302509E+02
0.257603757382543E+02
0.254565899761177E+02
0.251902525681911E+02
0.249626007830939E+02
0.247747351970842E+02
0.246275953861919E+02
0.245219378343922E+02
0.244583172609866E+02
0.244370724274635E+02
0.301034293277730E+02
0.295684007797690E+02
0.290582860886447E+02
0.285747264287347E+02
0.281192694974509E+02
0.276934097391173E+02
0.272986038428355E+02
0.269362703164280E+02
0.266077791758394E+02
0.263144357056650E+02
0.260574608727681E+02
0.258379701705336E+02
0.256569522508769E+02
0.255152484990863E+02
0.254135345990980E+02
0.253523050423778E+02
0.253318614057414E+02
0.308167969276844E+02
0.302952842631861E+02
0.297985274770008E+02
0.293280794957886E+02
0.288853934043706E+02
0.284718627202336E+02
0.280888376320789E+02
0.277376259209590E+02
0.274194845356689E+02
0.271356057103910E+02
0.268871001239210E+02
0.266749787696951E+02
0.265001347551421E+02
0.263633260188779E+02
0.262651598278356E+02
0.262060798176541E+02
0.261863562256666E+02
0.314885646450200E+02
0.309793163386610E+02
0.304946541304641E+02
0.300360516998555E+02
0.296048779154030E+02
0.292024371932003E+02
0.288299864181084E+02
0.284887370570976E+02
0.281798483639391E+02
0.279044154948805E+02
0.276634549581468E+02
0.274578889733686E+02
0.272885298462025E+02
0.271560652150914E+02
0.270610448891251E+02
0.270038698963060E+02
0.269847842596947E+02
0.321017345037200E+02
0.316033290835635E+02
0.311293400581249E+02
0.306811717710120E+02
0.302601199516054E+02
0.298674121660375E+02
0.295042253405224E+02
0.291716888982422E+02
0.288708793379988E+02
0.286028100097801E+02
0.283684184422522E+02
0.281685527202486E+02
0.280039579264656E+02
0.278752634015276E+02
0.277829714318246E+02
0.277274478758092E+02
0.277089151478490E+02
0.326379958013641E+02
0.321488245821526E+02
0.316839116317012E+02
0.312446028127566E+02
0.308321325385617E+02
0.304476643100130E+02
0.300923087455553E+02
0.297671275642667E+02
0.294731292855706E+02
0.292112603435792E+02
0.289823939136224E+02
0.287873178857586E+02
0.286267229280709E+02
0.285011913152134E+02
0.284111870491523E+02
0.283570477020596E+02
0.283389783280062E+02
0.330789949576366E+02
0.325972584756261E+02
0.321396443805953E+02
0.317074518408494E+02
0.313018665439415E+02
0.309240013050925E+02
0.305749144985019E+02
0.302556147035937E+02
0.299670572750765E+02
0.297101364876834E+02
0.294856755072758E+02
0.292944155742451E+02
0.291370052882975E+02
0.290139906120145E+02
0.289258060601154E+02
0.288727674462246E+02
0.288550664819917E+02
0.334079230964809E+02
0.329316450836137E+02
0.324793850678294E+02
0.320524081591947E+02
0.316518646302510E+02
0.312788305766518E+02
0.309343266386891E+02
0.306193231238061E+02
0.303347371977280E+02
0.300814257599575E+02
0.298601762219331E+02
0.296716965390513E+02
0.295166053482002E+02
0.293954227882935E+02
0.293085624299299E+02
0.292563246467500E+02
0.292388916885904E+02
0.336112017638511E+02
0.331382619629589E+02
0.326892744599591E+02
0.322654836298211E+02
0.318680182338722E+02
0.314979321120127E+02
0.311562230796398E+02
0.308438383369413E+02
0.305616720325185E+02
0.303105585754323E+02
0.300912638936840E+02
0.299044759695578E+02
0.297507954813655E+02
0.296307271057419E+02
0.295446718829253E+02
0.294929209549281E+02
0.294756509167038E+02
0.336799854741575E+02
0.332081693526015E+02
0.327602831042222E+02
0.323375641403225E+02
0.319411340062151E+02
0.315720390839760E+02
0.312312695480333E+02
0.309197648702252E+02
0.306384115075729E+02
0.303880363595470E+02
0.301693981860352E+02
0.299831783095229E+02
0.298299714237146E+02
0.297102770550650E+02
0.296244920718823E+02
0.295729045434934E+02
0.295556891830528E+02
0.241954526110293E+02
0.235194699225198E+02
0.228677988942541E+02
0.222429950072282E+02
0.216476577591735E+02
0.210844806276276E+02
0.205562672367083E+02
0.200659215045760E+02
0.196164165832434E+02
0.192107455246295E+02
0.188518559204540E+02
0.185425711181522E+02
0.182855017138104E+02
0.180829524791423E+02
0.179368312556658E+02
0.178485672128901E+02
0.178190458675740E+02
0.248938214231197E+02
0.242380680166869E+02
0.236069963371864E+02
0.230030393866706E+02
0.224286455036450E+02
0.218863248714213E+02
0.213786636639661E+02
0.209083140748029E+02
0.204779655826985E+02
0.200903009013896E+02
0.197479392104760E+02
0.194533693074519E+02
0.192088759790438E+02
0.190164638349496E+02
0.188777837365770E+02
0.187940674696725E+02
0.187660762076092E+02
0.256116323669988E+02
0.249754626165163E+02
0.243642359714394E+02
0.237802617548906E+02
0.232258398565168E+02
0.227033048066549E+02
0.222150388706039E+02
0.217634627298613E+02
0.213510094679834E+02
0.209800856341137E+02
0.206530221681568E+02
0.203720177707247E+02
0.201390776295633E+02
0.199559509889199E+02
0.198240715959290E+02
0.197445053409720E+02
0.197179092535948E+02
0.263460009795291E+02
0.257287166032283E+02
0.251365401506477E+02
0.245716582942394E+02
0.240362271413496E+02
0.235324146598366E+02
0.230624134244808E+02
0.226284324547804E+02
0.222326740898200E+02
0.218772998622416E+02
0.215643882304523E+02
0.212958866400583E+02
0.210735604706866E+02
0.208989417344811E+02
0.207732807037279E+02
0.206975037749863E+02
0.206721807000612E+02
0.270934681749502E+02
0.264943264585725E+02
0.259203733152239E+02
0.253736756015638E+02
0.248562517909452E+02
0.243701133374697E+02
0.239172775623506E+02
0.234997609453213E+02
0.231195588936649E+02
0.227786160430192E+02
0.224787899510044E+02
0.222218105150087E+02
0.220092373530534E+02
0.218424175097730E+02
0.217224459995315E+02
0.216501317310239E+02
0.216259711781391E+02
0.278496448376958E+02
0.272678593061791E+02
0.267112711685608E+02
0.261818317454287E+02
0.256814291197730E+02
0.252119288642105E+02
0.247751873855788E+02
0.243730468122084E+02
0.240073175499524E+02
0.236797525868519E+02
0.233920163640586E+02
0.231456503957596E+02
0.229420376003664E+02
0.227823672975814E+02
0.226676028675481E+02
0.225984540402491E+02
0.225753556118905E+02
0.286087832440609E+02
0.280435164121862E+02
0.275033961347735E+02
0.269902636407093E+02
0.265058846780736E+02
0.260519899007688E+02
0.256302888604803E+02
0.252424665205140E+02
0.248901684194093E+02
0.245749785461423E+02
0.242983926753863E+02
0.240617891997324E+02
0.238663991840249E+02
0.237132772688221E+02
0.236032750196770E+02
0.235370182550016E+02
0.235148897271943E+02
0.293633150315785E+02
0.288136632848783E+02
0.282890596020923E+02
0.277912415393913E+02
0.273218611989072E+02
0.268825254721654E+02
0.264748107728439E+02
0.261002611302509E+02
0.257603757382544E+02
0.254565899761177E+02
0.251902525681911E+02
0.249626007830940E+02
0.247747351970842E+02
0.246275953861919E+02
0.245219378343923E+02
0.244583172609866E+02
0.244370724274636E+02
0.301034293277730E+02
0.295684007797690E+02
0.290582860886448E+02
0.285747264287348E+02
0.281192694974509E+02
0.276934097391174E+02
0.272986038428355E+02
0.269362703164280E+02
0.266077791758394E+02
0.263144357056650E+02
0.260574608727682E+02
0.258379701705336E+02
0.256569522508769E+02
0.255152484990864E+02
0.254135345990980E+02
0.253523050423778E+02
0.253318614057414E+02
0.308167969276845E+02
0.302952842631861E+02
0.297985274770009E+02
0.293280794957887E+02
0.288853934043706E+02
0.284718627202337E+02
0.280888376320789E+02
0.277376259209590E+02
0.274194845356690E+02
0.271356057103911E+02
0.268871001239210E+02
0.266749787696952E+02
0.265001347551422E+02
0.263633260188780E+02
0.262651598278356E+02
0.262060798176541E+02
0.261863562256666E+02
0.314885646450200E+02
0.309793163386611E+02
0.304946541304641E+02
0.300360516998555E+02
0.296048779154030E+02
0.292024371932003E+02
0.288299864181084E+02
0.284887370570976E+02
0.281798483639391E+02
0.279044154948805E+02
0.276634549581469E+02
0.274578889733687E+02
0.272885298462025E+02
0.271560652150914E+02
0.270610448891252E+02
0.270038698963061E+02
0.269847842596947E+02
0.321017345037201E+02
0.316033290835636E+02
0.311293400581249E+02
0.306811717710121E+02
0.302601199516054E+02
0.298674121660375E+02
0.295042253405225E+02
0.291716888982423E+02
0.288708793379989E+02
0.286028100097801E+02
0.283684184422522E+02
0.281685527202486E+02
0.280039579264656E+02
0.278752634015277E+02
0.277829714318247E+02
0.277274478758093E+02
0.277089151478490E+02
0.326379958013641E+02
0.321488245821527E+02
0.316839116317013E+02
0.312446028127566E+02
0.308321325385618E+02
0.304476643100131E+02
0.300923087455553E+02
0.297671275642667E+02
0.294731292855707E+02
0.292112603435793E+02
0.289823939136224E+02
0.287873178857587E+02
0.286267229280709E+02
0.285011913152134E+02
0.284111870491523E+02
0.283570477020596E+02
0.283389783280063E+02
0.330789949576366E+02
0.325972584756262E+02
0.321396443805953E+02
0.317074518408495E+02
0.313018665439415E+02
0.309240013050925E+02
0.305749144985020E+02
0.302556147035937E+02
0.299670572750766E+02
0.297101364876834E+02
0.294856755072759E+02
0.292944155742451E+02
0.291370052882975E+02
0.290139906120146E+02
0.289258060601154E+02
0.288727674462246E+02
0.288550664819918E+02
0.334079230964809E+02
0.329316450836138E+02
0.324793850678295E+02
0.320524081591948E+02
0.316518646302511E+02
0.312788305766518E+02
0.309343266386891E+02
0.306193231238061E+02
0.303347371977280E+02
0.300814257599575E+02
0.298601762219331E+02
0.296716965390513E+02
0.295166053482002E+02
0.293954227882935E+02
0.293085624299300E+02
0.292563246467500E+02
0.292388916885905E+02
0.336112017638511E+02
0.331382619629589E+02
0.326892744599592E+02
0.322654836298211E+02
0.318680182338722E+02
0.314979321120127E+02
0.311562230796399E+02
0.308438383369413E+02
0.305616720325185E+02
0.303105585754323E+02
0.300912638936840E+02
0.299044759695579E+02
0.297507954813656E+02
0.296307271057419E+02
0.295446718829253E+02
0.294929209549282E+02
0.294756509167039E+02
0.336799854741575E+02
0.332081693526016E+02
0.327602831042223E+02
0.323375641403226E+02
0.319411340062151E+02
0.315720390839760E+02
0.312312695480334E+02
0.309197648702253E+02
0.306384115075729E+02
0.303880363595470E+02
0.301693981860352E+02
0.299831783095229E+02
0.298299714237146E+02
0.297102770550651E+02
0.296244920718823E+02
0.295729045434934E+02
0.295556891830528E+02
0.241954526110293E+02
0.235194699225199E+02
0.228677988942542E+02
0.222429950072282E+02
0.216476577591736E+02
0.210844806276277E+02
0.205562672367084E+02
0.200659215045761E+02
0.196164165832434E+02
0.192107455246295E+02
0.188518559204540E+02
0.185425711181523E+02
0.182855017138105E+02
0.180829524791424E+02
0.179368312556659E+02
0.178485672128902E+02
0.178190458675741E+02
0.248938214231197E+02
0.242380680166870E+02
0.236069963371864E+02
0.230030393866707E+02
0.224286455036451E+02
0.218863248714214E+02
0.213786636639662E+02
0.209083140748029E+02
0.204779655826986E+02
0.200903009013897E+02
0.197479392104761E+02
0.194533693074520E+02
0.192088759790438E+02
0.190164638349497E+02
0.188777837365771E+02
0.187940674696726E+02
0.187660762076092E+02
0.256116323669989E+02
0.249754626165164E+02
0.243642359714394E+02
0.237802617548906E+02
0.232258398565168E+02
0.227033048066550E+02
0.222150388706039E+02
0.217634627298613E+02
0.213510094679834E+02
0.209800856341137E+02
0.206530221681569E+02
0.203720177707248E+02
0.201390776295634E+02
0.199559509889200E+02
0.198240715959290E+02
0.197445053409721E+02
0.197179092535949E+02
0.263460009795291E+02
0.257287166032284E+02
0.251365401506478E+02
0.245716582942395E+02
0.240362271413497E+02
0.235324146598366E+02
0.230624134244809E+02
0.226284324547805E+02
0.222326740898201E+02
0.218772998622416E+02
0.215643882304524E+02
0.212958866400584E+02
0.210735604706867E+02
0.208989417344812E+02
0.207732807037280E+02
0.206975037749863E+02
0.206721807000612E+02
0.270934681749502E+02
0.264943264585725E+02
0.259203733152239E+02
0.253736756015639E+02
0.248562517909453E+02
0.243701133374697E+02
0.239172775623506E+02
0.234997609453213E+02
0.231195588936650E+02
0.227786160430192E+02
0.224787899510044E+02
0.222218105150088E+02
0.220092373530534E+02
0.218424175097731E+02
0.217224459995316E+02
0.216501317310240E+02
0.216259711781392E+02
0.278496448376958E+02
0.272678593061792E+02
0.267112711685608E+02
0.261818317454288E+02
0.256814291197731E+02
0.252119288642105E+02
0.247751873855789E+02
0.243730468122084E+02
0.240073175499524E+02
0.236797525868520E+02
0.233920163640587E+02
0.231456503957597E+02
0.229420376003664E+02
0.227823672975815E+02
0.226676028675482E+02
0.225984540402492E+02
0.225753556118905E+02
0.286087832440610E+02
0.280435164121863E+02
0.275033961347736E+02
0.269902636407093E+02
0.265058846780736E+02
0.260519899007688E+02
0.256302888604804E+02
0.252424665205140E+02
0.248901684194093E+02
0.245749785461423E+02
0.242983926753864E+02
0.240617891997325E+02
0.238663991840249E+02
0.237132772688221E+02
0.236032750196771E+02
0.235370182550017E+02
0.235148897271944E+02
0.293633150315785E+02
0.288136632848784E+02
0.282890596020924E+02
0.277912415393914E+02
0.273218611989073E+02
0.268825254721654E+02
0.264748107728439E+02
0.261002611302510E+02
0.257603757382544E+02
0.254565899761178E+02
0.251902525681912E+02
0.249626007830940E+02
0.247747351970843E+02
0.246275953861920E+02
0.245219378343923E+02
0.244583172609867E+02
0.244370724274636E+02
0.301034293277731E+02
0.295684007797691E+02
0.290582860886448E+02
0.285747264287348E+02
0.281192694974510E+02
0.276934097391174E+02
0.272986038428356E+02
0.269362703164281E+02
0.266077791758395E+02
0.263144357056651E+02
0.260574608727682E+02
0.258379701705337E+02
0.256569522508770E+02
0.255152484990864E+02
0.254135345990981E+02
0.253523050423779E+02
0.253318614057415E+02
0.308167969276845E+02
0.302952842631862E+02
0.297985274770009E+02
0.293280794957887E+02
0.288853934043706E+02
0.284718627202337E+02
0.280888376320790E+02
0.277376259209591E+02
0.274194845356690E+02
0.271356057103911E+02
0.268871001239211E+02
0.266749787696952E+02
0.265001347551422E+02
0.263633260188780E+02
0.262651598278357E+02
0.262060798176542E+02
0.261863562256667E+02
0.314885646450201E+02
0.309793163386611E+02
0.304946541304642E+02
0.300360516998556E+02
0.296048779154031E+02
0.292024371932004E+02
0.288299864181085E+02
0.284887370570977E+02
0.281798483639392E+02
0.279044154948806E+02
0.276634549581469E+02
0.274578889733687E+02
0.272885298462026E+02
0.271560652150915E+02
0.270610448891252E+02
0.270038698963061E+02
0.269847842596948E+02
0.321017345037201E+02
0.316033290835636E+02
0.311293400581250E+02
0.306811717710121E+02
0.302601199516054E+02
0.298674121660375E+02
0.295042253405225E+02
0.291716888982423E+02
0.288708793379989E+02
0.286028100097802E+02
0.283684184422522E+02
0.281685527202487E+02
0.280039579264657E+02
0.278752634015277E+02
0.277829714318247E+02
0.277274478758093E+02
0.277089151478491E+02
0.326379958013641E+02
0.321488245821527E+02
0.316839116317013E+02
0.312446028127567E+02
0.308321325385618E+02
0.304476643100131E+02
0.300923087455554E+02
0.297671275642668E+02
0.294731292855707E+02
0.292112603435793E+02
0.289823939136225E+02
0.287873178857587E+02
0.286267229280710E+02
0.285011913152135E+02
0.284111870491524E+02
0.283570477020597E+02
0.283389783280063E+02
0.330789949576367E+02
0.325972584756262E+02
0.321396443805954E+02
0.317074518408495E+02
0.313018665439416E+02
0.309240013050926E+02
0.305749144985020E+02
0.302556147035937E+02
0.299670572750766E+02
0.297101364876835E+02
0.294856755072759E+02
0.292944155742452E+02
0.291370052882976E+02
0.290139906120146E+02
0.289258060601155E+02
0.288727674462246E+02
0.288550664819918E+02
0.334079230964809E+02
0.329316450836138E+02
0.324793850678295E+02
0.320524081591948E+02
0.316518646302511E+02
0.312788305766519E+02
0.309343266386891E+02
0.306193231238062E+02
0.303347371977281E+02
0.300814257599576E+02
0.298601762219332E+02
0.296716965390513E+02
0.295166053482003E+02
0.293954227882936E+02
0.293085624299300E+02
0.292563246467501E+02
0.292388916885905E+02
0.336112017638511E+02
0.331382619629590E+02
0.326892744599592E+02
0.322654836298211E+02
0.318680182338722E+02
0.314979321120128E+02
0.311562230796399E+02
0.308438383369414E+02
0.305616720325186E+02
0.303105585754324E+02
0.300912638936840E+02
0.299044759695579E+02
0.297507954813656E+02
0.296307271057419E+02
0.295446718829254E+02
0.294929209549282E+02
0.294756509167039E+02
0.336799854741576E+02
0.332081693526016E+02
0.327602831042223E+02
0.323375641403226E+02
0.319411340062152E+02
0.315720390839761E+02
0.312312695480334E+02
0.309197648702253E+02
0.306384115075730E+02
0.303880363595471E+02
0.301693981860353E+02
0.299831783095230E+02
0.298299714237146E+02
0.297102770550651E+02
0.296244920718824E+02
0.295729045434935E+02
0.295556891830529E+02
</DataArray>
</PointData>
</Piece>
</RectilinearGrid>
</VTKFile>
