<?xml version="1.0"?>
<VTKFile type="RectilinearGrid" version="0.1" byte_order="LittleEndian">
<RectilinearGrid WholeExtent="0   63    0   63    0    3">
<Piece Extent="15   31    0   15    0    3">
<Coordinates>
<DataArray Name="x" type="Float32" format="ascii">
0.150000000000000E+01
0.160000000000000E+01
0.170000000000000E+01
0.180000000000000E+01
0.190000000000000E+01
0.200000000000000E+01
0.210000000000000E+01
0.220000000000000E+01
0.230000000000000E+01
0.240000000000000E+01
0.250000000000000E+01
0.260000000000000E+01
0.270000000000000E+01
0.280000000000000E+01
0.290000000000000E+01
0.300000000000000E+01
0.310000000000000E+01
</DataArray>
<DataArray Name="y" type="Float32" format="ascii">
0.000000000000000E+00
0.100000000000000E+00
0.200000000000000E+00
0.300000000000000E+00
0.400000000000000E+00
0.500000000000000E+00
0.600000000000000E+00
0.700000000000000E+00
0.800000000000000E+00
0.900000000000000E+00
0.100000000000000E+01
0.110000000000000E+01
0.120000000000000E+01
0.130000000000000E+01
0.140000000000000E+01
0.150000000000000E+01
</DataArray>
<DataArray Name="z" type="Float32" format="ascii">
0.000000000000000E+00
0.100000000000000E+00
0.200000000000000E+00
0.300000000000000E+00
</DataArray>
</Coordinates>
<PointData Scalars="c">
<DataArray type="Float32" Name="c" format="ascii">
0.325269733374916E+02
0.320590280077795E+02
0.316107048256034E+02
0.311846080464826E+02
0.307829287320976E+02
0.304075221969240E+02
0.300599735452880E+02
0.297416499769543E+02
0.294537401279723E+02
0.291972817649308E+02
0.289731797301387E+02
0.287822162447737E+02
0.286250556276267E+02
0.285022452788159E+02
0.284142144898233E+02
0.283612723285427E+02
0.283436055438468E+02
0.323879146067908E+02
0.319175139500825E+02
0.314667662724838E+02
0.310382954532322E+02
0.306343120827848E+02
0.302566909595752E+02
0.299070365966129E+02
0.295867354135654E+02
0.292969948855774E+02
0.290388709773650E+02
0.288132857751299E+02
0.286210374417999E+02
0.284628045739065E+02
0.283391468311313E+02
0.282505034212449E+02
0.281971907089228E+02
0.281793999099383E+02
0.321598058965534E+02
0.316853470243468E+02
0.312305904559507E+02
0.307981925530962E+02
0.303903962918860E+02
0.300091088410258E+02
0.296559670145456E+02
0.293323892702684E+02
0.290396145326013E+02
0.287787291853680E+02
0.285506841723159E+02
0.283563043618318E+02
0.281962922891134E+02
0.280712281835885E+02
0.279815679007120E+02
0.279276400604573E+02
0.279096433831170E+02
0.318479072772676E+02
0.313678361635077E+02
0.309075321503535E+02
0.304696966172944E+02
0.300566175501497E+02
0.296702472294707E+02
0.293122676016540E+02
0.289841419973255E+02
0.286871534853111E+02
0.284224312316794E+02
0.281909668367061E+02
0.279936228502644E+02
0.278311356288067E+02
0.277041144946097E+02
0.276130388690781E+02
0.275582547315957E+02
0.275399714369966E+02
0.314591590116443E+02
0.309719860321328E+02
0.305046563285775E+02
0.300599284029141E+02
0.296401475685182E+02
0.292473237745857E+02
0.288831968626117E+02
0.285492879098805E+02
0.282469369598827E+02
0.279773285391941E+02
0.277415069790802E+02
0.275403837998075E+02
0.273747393867768E+02
0.272452209896318E+02
0.271523387868494E+02
0.270964614337114E+02
0.270778121843295E+02
0.310018092574365E+02
0.305061212894374E+02
0.300303591088147E+02
0.295773499255365E+02
0.291495083347349E+02
0.287489143005292E+02
0.283773782592408E+02
0.280364919834183E+02
0.277276655192621E+02
0.274521516328709E+02
0.272110598392797E+02
0.270053623439914E+02
0.268358942095062E+02
0.267033498680850E+02
0.266082778144259E+02
0.265510749823653E+02
0.265319819714541E+02
0.304850009038872E+02
0.299794697245524E+02
0.294939473326732E+02
0.290313406432588E+02
0.285941450823171E+02
0.281845227526850E+02
0.278043673402620E+02
0.274553543834981E+02
0.271389772314114E+02
0.268565701666741E+02
0.266093208338240E+02
0.263982743891940E+02
0.262243317876937E+02
0.260882444399345E+02
0.259906071881123E+02
0.259318512141073E+02
0.259122381415431E+02
0.299183540327345E+02
0.294017411605709E+02
0.289052140699230E+02
0.284317697367828E+02
0.279839955339724E+02
0.275641476030508E+02
0.271742155161877E+02
0.268159718255973E+02
0.264910068371126E+02
0.262007501299752E+02
0.259464810394266E+02
0.257293306218719E+02
0.255502776418386E+02
0.254101409518324E+02
0.253095703556875E+02
0.252490377054936E+02
0.252288296144036E+02
0.293115773515467E+02
0.287827358493358E+02
0.282740441414414E+02
0.277885989399018E+02
0.273290902274240E+02
0.268978798642916E+02
0.264970659572122E+02
0.261285315536695E+02
0.257939780065161E+02
0.254949445797738E+02
0.252328165991985E+02
0.250088247881527E+02
0.248240384761921E+02
0.246793552182819E+02
0.245754890895592E+02
0.245129595746808E+02
0.244920825840935E+02
0.286741352517873E+02
0.281320093123694E+02
0.276100769174006E+02
0.271115434761212E+02
0.266392117733661E+02
0.261955608494562E+02
0.257828100293421E+02
0.254029666192119E+02
0.250578576180864E+02
0.247491470662566E+02
0.244783414314502E+02
0.242467858130743E+02
0.240556538272887E+02
0.239059339113363E+02
0.237984145240458E+02
0.237336703688116E+02
0.237120513566080E+02
0.280149882063926E+02
0.274586115475746E+02
0.269224445174465E+02
0.264098094367910E+02
0.259236315900694E+02
0.254665184301660E+02
0.250408232272335E+02
0.246486916200746E+02
0.242920914123222E+02
0.239728272864667E+02
0.236925429440573E+02
0.234527136128258E+02
0.232546319894203E+02
0.230993905955124E+02
0.229878632802174E+02
0.229206882476054E+02
0.228982545538672E+02
0.273424145243512E+02
0.267709087134097E+02
0.262195936242971E+02
0.256919159176010E+02
0.251909325424474E+02
0.247193903370143E+02
0.242797892672679E+02
0.238744276845370E+02
0.235054299277421E+02
0.231747579927384E+02
0.228842098942359E+02
0.226354078436173E+02
0.224297795515762E+02
0.222685359171419E+02
0.221526481431529E+02
0.220828269623406E+02
0.220595061947965E+02
0.266639124020333E+02
0.260764862146744E+02
0.255091898269107E+02
0.249656008302777E+02
0.244489164125135E+02
0.239620334488604E+02
0.235076113166801E+02
0.230881157140825E+02
0.227058437771332E+02
0.223629322633053E+02
0.220613515527766E+02
0.218028887971569E+02
0.215891238029572E+02
0.214214012456258E+02
0.213008026200182E+02
0.212281209780813E+02
0.212038410079887E+02
0.259861738128344E+02
0.253821246169345E+02
0.247980958135962E+02
0.242378016128986E+02
0.237045873388948E+02
0.232015101352489E+02
0.227314013624804E+02
0.222969088411038E+02
0.219005191852312E+02
0.215445620324916E+02
0.212311990560485E+02
0.209624013195729E+02
0.207399188828139E+02
0.205652466443820E+02
0.204395902598788E+02
0.203638356226423E+02
0.203385248604199E+02
0.253151166782368E+02
0.246938346360218E+02
0.240924094706634E+02
0.235146967117282E+02
0.229641969259384E+02
0.224441371923856E+02
0.219575331143368E+02
0.215072293644926E+02
0.210959189353443E+02
0.207261429285882E+02
0.204002739103015E+02
0.201204866499937E+02
0.198887205169074E+02
0.197066379732764E+02
0.195755835089605E+02
0.194965470195247E+02
0.194701350540265E+02
0.246559591278756E+02
0.240169347501834E+02
0.233975451753794E+02
0.228017908683328E+02
0.222333338076048E+02
0.216955799184214E+02
0.211917407595091E+02
0.207248722678402E+02
0.202978906329324E+02
0.199135671494599E+02
0.195745052209045E+02
0.192831036160703E+02
0.190415106657571E+02
0.188515743597057E+02
0.187147932752679E+02
0.186322729406297E+02
0.186046916132220E+02
0.325269733374916E+02
0.320590280077795E+02
0.316107048256034E+02
0.311846080464826E+02
0.307829287320976E+02
0.304075221969240E+02
0.300599735452880E+02
0.297416499769543E+02
0.294537401279723E+02
0.291972817649308E+02
0.289731797301387E+02
0.287822162447737E+02
0.286250556276267E+02
0.285022452788159E+02
0.284142144898233E+02
0.283612723285427E+02
0.283436055438468E+02
0.323879146067908E+02
0.319175139500825E+02
0.314667662724838E+02
0.310382954532322E+02
0.306343120827848E+02
0.302566909595752E+02
0.299070365966129E+02
0.295867354135654E+02
0.292969948855774E+02
0.290388709773650E+02
0.288132857751299E+02
0.286210374417999E+02
0.284628045739065E+02
0.283391468311313E+02
0.282505034212449E+02
0.281971907089228E+02
0.281793999099383E+02
0.321598058965534E+02
0.316853470243468E+02
0.312305904559507E+02
0.307981925530962E+02
0.303903962918860E+02
0.300091088410258E+02
0.296559670145456E+02
0.293323892702684E+02
0.290396145326013E+02
0.287787291853680E+02
0.285506841723159E+02
0.283563043618318E+02
0.281962922891134E+02
0.280712281835885E+02
0.279815679007120E+02
0.279276400604573E+02
0.279096433831170E+02
0.318479072772676E+02
0.313678361635077E+02
0.309075321503535E+02
0.304696966172944E+02
0.300566175501497E+02
0.296702472294707E+02
0.293122676016540E+02
0.289841419973255E+02
0.286871534853111E+02
0.284224312316794E+02
0.281909668367061E+02
0.279936228502644E+02
0.278311356288067E+02
0.277041144946097E+02
0.276130388690781E+02
0.275582547315957E+02
0.275399714369966E+02
0.314591590116443E+02
0.309719860321328E+02
0.305046563285775E+02
0.300599284029141E+02
0.296401475685182E+02
0.292473237745857E+02
0.288831968626117E+02
0.285492879098805E+02
0.282469369598827E+02
0.279773285391941E+02
0.277415069790802E+02
0.275403837998075E+02
0.273747393867768E+02
0.272452209896318E+02
0.271523387868494E+02
0.270964614337114E+02
0.270778121843295E+02
0.310018092574365E+02
0.305061212894374E+02
0.300303591088147E+02
0.295773499255365E+02
0.291495083347349E+02
0.287489143005292E+02
0.283773782592408E+02
0.280364919834183E+02
0.277276655192621E+02
0.274521516328709E+02
0.272110598392797E+02
0.270053623439914E+02
0.268358942095062E+02
0.267033498680850E+02
0.266082778144259E+02
0.265510749823653E+02
0.265319819714541E+02
0.304850009038872E+02
0.299794697245524E+02
0.294939473326732E+02
0.290313406432588E+02
0.285941450823171E+02
0.281845227526850E+02
0.278043673402620E+02
0.274553543834981E+02
0.271389772314114E+02
0.268565701666741E+02
0.266093208338240E+02
0.263982743891940E+02
0.262243317876937E+02
0.260882444399345E+02
0.259906071881123E+02
0.259318512141073E+02
0.259122381415431E+02
0.299183540327345E+02
0.294017411605709E+02
0.289052140699230E+02
0.284317697367828E+02
0.279839955339724E+02
0.275641476030508E+02
0.271742155161877E+02
0.268159718255973E+02
0.264910068371126E+02
0.262007501299752E+02
0.259464810394266E+02
0.257293306218719E+02
0.255502776418386E+02
0.254101409518324E+02
0.253095703556875E+02
0.252490377054936E+02
0.252288296144036E+02
0.293115773515467E+02
0.287827358493358E+02
0.282740441414414E+02
0.277885989399018E+02
0.273290902274240E+02
0.268978798642916E+02
0.264970659572122E+02
0.261285315536695E+02
0.257939780065161E+02
0.254949445797738E+02
0.252328165991985E+02
0.250088247881527E+02
0.248240384761921E+02
0.246793552182819E+02
0.245754890895592E+02
0.245129595746808E+02
0.244920825840935E+02
0.286741352517873E+02
0.281320093123694E+02
0.276100769174006E+02
0.271115434761212E+02
0.266392117733661E+02
0.261955608494562E+02
0.257828100293421E+02
0.254029666192119E+02
0.250578576180864E+02
0.247491470662566E+02
0.244783414314502E+02
0.242467858130743E+02
0.240556538272887E+02
0.239059339113363E+02
0.237984145240458E+02
0.237336703688116E+02
0.237120513566080E+02
0.280149882063926E+02
0.274586115475746E+02
0.269224445174465E+02
0.264098094367910E+02
0.259236315900694E+02
0.254665184301660E+02
0.250408232272335E+02
0.246486916200746E+02
0.242920914123222E+02
0.239728272864667E+02
0.236925429440573E+02
0.234527136128258E+02
0.232546319894203E+02
0.230993905955124E+02
0.229878632802174E+02
0.229206882476054E+02
0.228982545538672E+02
0.273424145243512E+02
0.267709087134097E+02
0.262195936242971E+02
0.256919159176010E+02
0.251909325424474E+02
0.247193903370143E+02
0.242797892672679E+02
0.238744276845370E+02
0.235054299277421E+02
0.231747579927384E+02
0.228842098942359E+02
0.226354078436173E+02
0.224297795515762E+02
0.222685359171419E+02
0.221526481431529E+02
0.220828269623406E+02
0.220595061947965E+02
0.266639124020333E+02
0.260764862146744E+02
0.255091898269107E+02
0.249656008302777E+02
0.244489164125135E+02
0.239620334488604E+02
0.235076113166801E+02
0.230881157140825E+02
0.227058437771332E+02
0.223629322633053E+02
0.220613515527766E+02
0.218028887971569E+02
0.215891238029572E+02
0.214214012456258E+02
0.213008026200182E+02
0.212281209780813E+02
0.212038410079887E+02
0.259861738128344E+02
0.253821246169345E+02
0.247980958135962E+02
0.242378016128986E+02
0.237045873388948E+02
0.232015101352489E+02
0.227314013624804E+02
0.222969088411038E+02
0.219005191852312E+02
0.215445620324916E+02
0.212311990560485E+02
0.209624013195729E+02
0.207399188828139E+02
0.205652466443820E+02
0.204395902598788E+02
0.203638356226423E+02
0.203385248604199E+02
0.253151166782368E+02
0.246938346360218E+02
0.240924094706634E+02
0.235146967117282E+02
0.229641969259384E+02
0.224441371923856E+02
0.219575331143368E+02
0.215072293644926E+02
0.210959189353443E+02
0.207261429285882E+02
0.204002739103015E+02
0.201204866499937E+02
0.198887205169074E+02
0.197066379732764E+02
0.195755835089605E+02
0.194965470195247E+02
0.194701350540265E+02
0.246559591278756E+02
0.240169347501834E+02
0.233975451753794E+02
0.228017908683328E+02
0.222333338076048E+02
0.216955799184214E+02
0.211917407595091E+02
0.207248722678402E+02
0.202978906329324E+02
0.199135671494599E+02
0.195745052209045E+02
0.192831036160703E+02
0.190415106657571E+02
0.188515743597057E+02
0.187147932752679E+02
0.186322729406297E+02
0.186046916132220E+02
0.325269733374916E+02
0.320590280077795E+02
0.316107048256034E+02
0.311846080464826E+02
0.307829287320976E+02
0.304075221969240E+02
0.300599735452880E+02
0.297416499769543E+02
0.294537401279723E+02
0.291972817649308E+02
0.289731797301387E+02
0.287822162447737E+02
0.286250556276267E+02
0.285022452788159E+02
0.284142144898233E+02
0.283612723285427E+02
0.283436055438468E+02
0.323879146067908E+02
0.319175139500825E+02
0.314667662724838E+02
0.310382954532322E+02
0.306343120827848E+02
0.302566909595752E+02
0.299070365966129E+02
0.295867354135654E+02
0.292969948855774E+02
0.290388709773650E+02
0.288132857751299E+02
0.286210374417999E+02
0.284628045739065E+02
0.283391468311313E+02
0.282505034212449E+02
0.281971907089228E+02
0.281793999099383E+02
0.321598058965534E+02
0.316853470243468E+02
0.312305904559507E+02
0.307981925530962E+02
0.303903962918860E+02
0.300091088410258E+02
0.296559670145456E+02
0.293323892702684E+02
0.290396145326013E+02
0.287787291853680E+02
0.285506841723159E+02
0.283563043618318E+02
0.281962922891134E+02
0.280712281835885E+02
0.279815679007120E+02
0.279276400604573E+02
0.279096433831170E+02
0.318479072772676E+02
0.313678361635077E+02
0.309075321503535E+02
0.304696966172944E+02
0.300566175501497E+02
0.296702472294707E+02
0.293122676016540E+02
0.289841419973255E+02
0.286871534853111E+02
0.284224312316794E+02
0.281909668367061E+02
0.279936228502644E+02
0.278311356288067E+02
0.277041144946097E+02
0.276130388690781E+02
0.275582547315957E+02
0.275399714369966E+02
0.314591590116443E+02
0.309719860321328E+02
0.305046563285775E+02
0.300599284029141E+02
0.296401475685182E+02
0.292473237745857E+02
0.288831968626117E+02
0.285492879098805E+02
0.282469369598827E+02
0.279773285391941E+02
0.277415069790802E+02
0.275403837998075E+02
0.273747393867768E+02
0.272452209896318E+02
0.271523387868494E+02
0.270964614337114E+02
0.270778121843295E+02
0.310018092574365E+02
0.305061212894374E+02
0.300303591088147E+02
0.295773499255365E+02
0.291495083347349E+02
0.287489143005292E+02
0.283773782592408E+02
0.280364919834183E+02
0.277276655192621E+02
0.274521516328709E+02
0.272110598392797E+02
0.270053623439914E+02
0.268358942095062E+02
0.267033498680850E+02
0.266082778144259E+02
0.265510749823653E+02
0.265319819714541E+02
0.304850009038872E+02
0.299794697245524E+02
0.294939473326732E+02
0.290313406432588E+02
0.285941450823171E+02
0.281845227526850E+02
0.278043673402620E+02
0.274553543834981E+02
0.271389772314114E+02
0.268565701666741E+02
0.266093208338240E+02
0.263982743891940E+02
0.262243317876937E+02
0.260882444399345E+02
0.259906071881123E+02
0.259318512141073E+02
0.259122381415431E+02
0.299183540327345E+02
0.294017411605709E+02
0.289052140699230E+02
0.284317697367828E+02
0.279839955339724E+02
0.275641476030508E+02
0.271742155161877E+02
0.268159718255973E+02
0.264910068371126E+02
0.262007501299752E+02
0.259464810394266E+02
0.257293306218719E+02
0.255502776418386E+02
0.254101409518324E+02
0.253095703556875E+02
0.252490377054936E+02
0.252288296144036E+02
0.293115773515467E+02
0.287827358493358E+02
0.282740441414414E+02
0.277885989399018E+02
0.273290902274240E+02
0.268978798642916E+02
0.264970659572122E+02
0.261285315536695E+02
0.257939780065161E+02
0.254949445797738E+02
0.252328165991985E+02
0.250088247881527E+02
0.248240384761921E+02
0.246793552182819E+02
0.245754890895592E+02
0.245129595746808E+02
0.244920825840935E+02
0.286741352517873E+02
0.281320093123694E+02
0.276100769174006E+02
0.271115434761212E+02
0.266392117733661E+02
0.261955608494562E+02
0.257828100293421E+02
0.254029666192119E+02
0.250578576180864E+02
0.247491470662566E+02
0.244783414314502E+02
0.242467858130743E+02
0.240556538272887E+02
0.239059339113363E+02
0.237984145240458E+02
0.237336703688116E+02
0.237120513566080E+02
0.280149882063926E+02
0.274586115475746E+02
0.269224445174465E+02
0.264098094367910E+02
0.259236315900694E+02
0.254665184301660E+02
0.250408232272335E+02
0.246486916200746E+02
0.242920914123222E+02
0.239728272864667E+02
0.236925429440573E+02
0.234527136128258E+02
0.232546319894203E+02
0.230993905955124E+02
0.229878632802174E+02
0.229206882476054E+02
0.228982545538672E+02
0.273424145243512E+02
0.267709087134097E+02
0.262195936242971E+02
0.256919159176010E+02
0.251909325424474E+02
0.247193903370143E+02
0.242797892672679E+02
0.238744276845370E+02
0.235054299277421E+02
0.231747579927384E+02
0.228842098942359E+02
0.226354078436173E+02
0.224297795515762E+02
0.222685359171419E+02
0.221526481431529E+02
0.220828269623406E+02
0.220595061947965E+02
0.266639124020333E+02
0.260764862146744E+02
0.255091898269107E+02
0.249656008302777E+02
0.244489164125135E+02
0.239620334488604E+02
0.235076113166801E+02
0.230881157140825E+02
0.227058437771332E+02
0.223629322633053E+02
0.220613515527766E+02
0.218028887971569E+02
0.215891238029572E+02
0.214214012456258E+02
0.213008026200182E+02
0.212281209780813E+02
0.212038410079887E+02
0.259861738128344E+02
0.253821246169345E+02
0.247980958135962E+02
0.242378016128986E+02
0.237045873388948E+02
0.232015101352489E+02
0.227314013624804E+02
0.222969088411038E+02
0.219005191852312E+02
0.215445620324916E+02
0.212311990560485E+02
0.209624013195729E+02
0.207399188828139E+02
0.205652466443820E+02
0.204395902598788E+02
0.203638356226423E+02
0.203385248604199E+02
0.253151166782368E+02
0.246938346360218E+02
0.240924094706634E+02
0.235146967117282E+02
0.229641969259384E+02
0.224441371923856E+02
0.219575331143368E+02
0.215072293644926E+02
0.210959189353443E+02
0.207261429285882E+02
0.204002739103015E+02
0.201204866499937E+02
0.198887205169074E+02
0.197066379732764E+02
0.195755835089605E+02
0.194965470195247E+02
0.194701350540265E+02
0.246559591278756E+02
0.240169347501834E+02
0.233975451753794E+02
0.228017908683328E+02
0.222333338076048E+02
0.216955799184214E+02
0.211917407595091E+02
0.207248722678402E+02
0.202978906329324E+02
0.199135671494599E+02
0.195745052209045E+02
0.192831036160703E+02
0.190415106657571E+02
0.188515743597057E+02
0.187147932752679E+02
0.186322729406297E+02
0.186046916132220E+02
0.325269733374916E+02
0.320590280077795E+02
0.316107048256034E+02
0.311846080464826E+02
0.307829287320976E+02
0.304075221969240E+02
0.300599735452880E+02
0.297416499769543E+02
0.294537401279723E+02
0.291972817649308E+02
0.289731797301387E+02
0.287822162447737E+02
0.286250556276267E+02
0.285022452788159E+02
0.284142144898233E+02
0.283612723285427E+02
0.283436055438468E+02
0.323879146067908E+02
0.319175139500825E+02
0.314667662724838E+02
0.310382954532322E+02
0.306343120827848E+02
0.302566909595752E+02
0.299070365966129E+02
0.295867354135654E+02
0.292969948855774E+02
0.290388709773650E+02
0.288132857751299E+02
0.286210374417999E+02
0.284628045739065E+02
0.283391468311313E+02
0.282505034212449E+02
0.281971907089228E+02
0.281793999099383E+02
0.321598058965534E+02
0.316853470243468E+02
0.312305904559507E+02
0.307981925530962E+02
0.303903962918860E+02
0.300091088410258E+02
0.296559670145456E+02
0.293323892702684E+02
0.290396145326013E+02
0.287787291853680E+02
0.285506841723159E+02
0.283563043618318E+02
0.281962922891134E+02
0.280712281835885E+02
0.279815679007120E+02
0.279276400604573E+02
0.279096433831170E+02
0.318479072772676E+02
0.313678361635077E+02
0.309075321503535E+02
0.304696966172944E+02
0.300566175501497E+02
0.296702472294707E+02
0.293122676016540E+02
0.289841419973255E+02
0.286871534853111E+02
0.284224312316794E+02
0.281909668367061E+02
0.279936228502644E+02
0.278311356288067E+02
0.277041144946097E+02
0.276130388690781E+02
0.275582547315957E+02
0.275399714369966E+02
0.314591590116443E+02
0.309719860321328E+02
0.305046563285775E+02
0.300599284029141E+02
0.296401475685182E+02
0.292473237745857E+02
0.288831968626117E+02
0.285492879098805E+02
0.282469369598827E+02
0.279773285391941E+02
0.277415069790802E+02
0.275403837998075E+02
0.273747393867768E+02
0.272452209896318E+02
0.271523387868494E+02
0.270964614337114E+02
0.270778121843295E+02
0.310018092574365E+02
0.305061212894374E+02
0.300303591088147E+02
0.295773499255365E+02
0.291495083347349E+02
0.287489143005292E+02
0.283773782592408E+02
0.280364919834183E+02
0.277276655192621E+02
0.274521516328709E+02
0.272110598392797E+02
0.270053623439914E+02
0.268358942095062E+02
0.267033498680850E+02
0.266082778144259E+02
0.265510749823653E+02
0.265319819714541E+02
0.304850009038872E+02
0.299794697245524E+02
0.294939473326732E+02
0.290313406432588E+02
0.285941450823171E+02
0.281845227526850E+02
0.278043673402620E+02
0.274553543834981E+02
0.271389772314114E+02
0.268565701666741E+02
0.266093208338240E+02
0.263982743891940E+02
0.262243317876937E+02
0.260882444399345E+02
0.259906071881123E+02
0.259318512141073E+02
0.259122381415431E+02
0.299183540327345E+02
0.294017411605709E+02
0.289052140699230E+02
0.284317697367828E+02
0.279839955339724E+02
0.275641476030508E+02
0.271742155161877E+02
0.268159718255973E+02
0.264910068371126E+02
0.262007501299752E+02
0.259464810394266E+02
0.257293306218719E+02
0.255502776418386E+02
0.254101409518324E+02
0.253095703556875E+02
0.252490377054936E+02
0.252288296144036E+02
0.293115773515467E+02
0.287827358493358E+02
0.282740441414414E+02
0.277885989399018E+02
0.273290902274240E+02
0.268978798642916E+02
0.264970659572122E+02
0.261285315536695E+02
0.257939780065161E+02
0.254949445797738E+02
0.252328165991985E+02
0.250088247881527E+02
0.248240384761921E+02
0.246793552182819E+02
0.245754890895592E+02
0.245129595746808E+02
0.244920825840935E+02
0.286741352517873E+02
0.281320093123694E+02
0.276100769174006E+02
0.271115434761212E+02
0.266392117733661E+02
0.261955608494562E+02
0.257828100293421E+02
0.254029666192119E+02
0.250578576180864E+02
0.247491470662566E+02
0.244783414314502E+02
0.242467858130743E+02
0.240556538272887E+02
0.239059339113363E+02
0.237984145240458E+02
0.237336703688116E+02
0.237120513566080E+02
0.280149882063926E+02
0.274586115475746E+02
0.269224445174465E+02
0.264098094367910E+02
0.259236315900694E+02
0.254665184301660E+02
0.250408232272335E+02
0.246486916200746E+02
0.242920914123222E+02
0.239728272864667E+02
0.236925429440573E+02
0.234527136128258E+02
0.232546319894203E+02
0.230993905955124E+02
0.229878632802174E+02
0.229206882476054E+02
0.228982545538672E+02
0.273424145243512E+02
0.267709087134097E+02
0.262195936242971E+02
0.256919159176010E+02
0.251909325424474E+02
0.247193903370143E+02
0.242797892672679E+02
0.238744276845370E+02
0.235054299277421E+02
0.231747579927384E+02
0.228842098942359E+02
0.226354078436173E+02
0.224297795515762E+02
0.222685359171419E+02
0.221526481431529E+02
0.220828269623406E+02
0.220595061947965E+02
0.266639124020333E+02
0.260764862146744E+02
0.255091898269107E+02
0.249656008302777E+02
0.244489164125135E+02
0.239620334488604E+02
0.235076113166801E+02
0.230881157140825E+02
0.227058437771332E+02
0.223629322633053E+02
0.220613515527766E+02
0.218028887971569E+02
0.215891238029572E+02
0.214214012456258E+02
0.213008026200182E+02
0.212281209780813E+02
0.212038410079887E+02
0.259861738128344E+02
0.253821246169345E+02
0.247980958135962E+02
0.242378016128986E+02
0.237045873388948E+02
0.232015101352489E+02
0.227314013624804E+02
0.222969088411038E+02
0.219005191852312E+02
0.215445620324916E+02
0.212311990560485E+02
0.209624013195729E+02
0.207399188828139E+02
0.205652466443820E+02
0.204395902598788E+02
0.203638356226423E+02
0.203385248604199E+02
0.253151166782368E+02
0.246938346360218E+02
0.240924094706634E+02
0.235146967117282E+02
0.229641969259384E+02
0.224441371923856E+02
0.219575331143368E+02
0.215072293644926E+02
0.210959189353443E+02
0.207261429285882E+02
0.204002739103015E+02
0.201204866499937E+02
0.198887205169074E+02
0.197066379732764E+02
0.195755835089605E+02
0.194965470195247E+02
0.194701350540265E+02
0.246559591278756E+02
0.240169347501834E+02
0.233975451753794E+02
0.228017908683328E+02
0.222333338076048E+02
0.216955799184214E+02
0.211917407595091E+02
0.207248722678402E+02
0.202978906329324E+02
0.199135671494599E+02
0.195745052209045E+02
0.192831036160703E+02
0.190415106657571E+02
0.188515743597057E+02
0.187147932752679E+02
0.186322729406297E+02
0.186046916132220E+02
</DataArray>
</PointData>
</Piece>
</RectilinearGrid>
</VTKFile>
