<?xml version="1.0"?>
<VTKFile type="RectilinearGrid" version="0.1" byte_order="LittleEndian">
<RectilinearGrid WholeExtent="0   63    0   63    0    3">
<Piece Extent="0   63    0   63    0    3">
<Coordinates>
<DataArray Name="x" type="Float32" format="ascii">
0.000000000000000E+00
0.100000000000000E+00
0.200000000000000E+00
0.300000000000000E+00
0.400000000000000E+00
0.500000000000000E+00
0.600000000000000E+00
0.700000000000000E+00
0.800000000000000E+00
0.900000000000000E+00
0.100000000000000E+01
0.110000000000000E+01
0.120000000000000E+01
0.130000000000000E+01
0.140000000000000E+01
0.150000000000000E+01
0.160000000000000E+01
0.170000000000000E+01
0.180000000000000E+01
0.190000000000000E+01
0.200000000000000E+01
0.210000000000000E+01
0.220000000000000E+01
0.230000000000000E+01
0.240000000000000E+01
0.250000000000000E+01
0.260000000000000E+01
0.270000000000000E+01
0.280000000000000E+01
0.290000000000000E+01
0.300000000000000E+01
0.310000000000000E+01
0.320000000000000E+01
0.330000000000000E+01
0.340000000000000E+01
0.350000000000000E+01
0.360000000000000E+01
0.370000000000000E+01
0.380000000000000E+01
0.390000000000000E+01
0.400000000000000E+01
0.410000000000000E+01
0.420000000000000E+01
0.430000000000000E+01
0.440000000000000E+01
0.450000000000000E+01
0.460000000000000E+01
0.470000000000000E+01
0.480000000000000E+01
0.490000000000000E+01
0.500000000000000E+01
0.510000000000000E+01
0.520000000000000E+01
0.530000000000000E+01
0.540000000000000E+01
0.550000000000000E+01
0.560000000000000E+01
0.570000000000000E+01
0.580000000000000E+01
0.590000000000000E+01
0.600000000000000E+01
0.610000000000000E+01
0.620000000000000E+01
0.630000000000000E+01
</DataArray>
<DataArray Name="y" type="Float32" format="ascii">
0.000000000000000E+00
0.100000000000000E+00
0.200000000000000E+00
0.300000000000000E+00
0.400000000000000E+00
0.500000000000000E+00
0.600000000000000E+00
0.700000000000000E+00
0.800000000000000E+00
0.900000000000000E+00
0.100000000000000E+01
0.110000000000000E+01
0.120000000000000E+01
0.130000000000000E+01
0.140000000000000E+01
0.150000000000000E+01
0.160000000000000E+01
0.170000000000000E+01
0.180000000000000E+01
0.190000000000000E+01
0.200000000000000E+01
0.210000000000000E+01
0.220000000000000E+01
0.230000000000000E+01
0.240000000000000E+01
0.250000000000000E+01
0.260000000000000E+01
0.270000000000000E+01
0.280000000000000E+01
0.290000000000000E+01
0.300000000000000E+01
0.310000000000000E+01
0.320000000000000E+01
0.330000000000000E+01
0.340000000000000E+01
0.350000000000000E+01
0.360000000000000E+01
0.370000000000000E+01
0.380000000000000E+01
0.390000000000000E+01
0.400000000000000E+01
0.410000000000000E+01
0.420000000000000E+01
0.430000000000000E+01
0.440000000000000E+01
0.450000000000000E+01
0.460000000000000E+01
0.470000000000000E+01
0.480000000000000E+01
0.490000000000000E+01
0.500000000000000E+01
0.510000000000000E+01
0.520000000000000E+01
0.530000000000000E+01
0.540000000000000E+01
0.550000000000000E+01
0.560000000000000E+01
0.570000000000000E+01
0.580000000000000E+01
0.590000000000000E+01
0.600000000000000E+01
0.610000000000000E+01
0.620000000000000E+01
0.630000000000000E+01
</DataArray>
<DataArray Name="z" type="Float32" format="ascii">
0.000000000000000E+00
0.100000000000000E+00
0.200000000000000E+00
0.300000000000000E+00
</DataArray>
</Coordinates>
<PointData Scalars="c">
<DataArray type="Float32" Name="c" format="ascii">
0.442415618522039E+02
0.437659728840065E+02
0.431449655120713E+02
0.424805630703514E+02
0.418153373157100E+02
0.411614229789867E+02
0.405216750471571E+02
0.398970941467033E+02
0.392884494085681E+02
0.386965137558348E+02
0.381220857988013E+02
0.375659897360337E+02
0.370290733419587E+02
0.365122053271502E+02
0.360162720710045E+02
0.355421736824179E+02
0.350908193535875E+02
0.346631219863450E+02
0.342599920888838E+02
0.338823309633704E+02
0.335310232314683E+02
0.332069287746212E+02
0.329108741979637E+02
0.326436439594909E+02
0.324059713376959E+02
0.321985294390931E+02
0.320219224694805E+02
0.318766775071113E+02
0.317632370200849E+02
0.316819523626867E+02
0.316330784653744E+02
0.316167699008452E+02
0.316330784653744E+02
0.316819523626867E+02
0.317632370200849E+02
0.318766775071113E+02
0.320219224694805E+02
0.321985294390931E+02
0.324059713376959E+02
0.326436439594909E+02
0.329108741979637E+02
0.332069287746212E+02
0.335310232314683E+02
0.338823309633704E+02
0.342599920888838E+02
0.346631219863450E+02
0.350908193535875E+02
0.355421736824179E+02
0.360162720710045E+02
0.365122053271502E+02
0.370290733419587E+02
0.375659897360337E+02
0.381220857988013E+02
0.386965137558348E+02
0.392884494085681E+02
0.398970941467033E+02
0.405216750471571E+02
0.411614229789867E+02
0.418153373157100E+02
0.424805630703514E+02
0.431449655120713E+02
0.437659728840065E+02
0.442415618522039E+02
0.444261921630640E+02
0.437659728840065E+02
0.432849622281306E+02
0.426566848924445E+02
0.419842538145246E+02
0.413107160247707E+02
0.406483509330136E+02
0.400000530401580E+02
0.393668416606721E+02
0.387495035519568E+02
0.381488314143511E+02
0.375656462596360E+02
0.370007974682728E+02
0.364551608832401E+02
0.359296362367504E+02
0.354251438997020E+02
0.349426208981922E+02
0.344830161507185E+02
0.340472848943985E+02
0.336363822881846E+02
0.332512562057821E+02
0.328928392606512E+02
0.325620401394707E+02
0.322597343576525E+02
0.319867545892509E+02
0.317438807616988E+02
0.315318301405670E+02
0.313512476580380E+02
0.312026967580365E+02
0.310866510382837E+02
0.310034869628592E+02
0.309534778970779E+02
0.309367896796926E+02
0.309534778970779E+02
0.310034869628592E+02
0.310866510382837E+02
0.312026967580365E+02
0.313512476580380E+02
0.315318301405670E+02
0.317438807616988E+02
0.319867545892509E+02
0.322597343576525E+02
0.325620401394707E+02
0.328928392606512E+02
0.332512562057821E+02
0.336363822881846E+02
0.340472848943985E+02
0.344830161507185E+02
0.349426208981922E+02
0.354251438997020E+02
0.359296362367504E+02
0.364551608832401E+02
0.370007974682728E+02
0.375656462596360E+02
0.381488314143511E+02
0.387495035519568E+02
0.393668416606721E+02
0.400000530401580E+02
0.406483509330136E+02
0.413107160247707E+02
0.419842538145246E+02
0.426566848924445E+02
0.432849622281306E+02
0.437659728840065E+02
0.439526737895189E+02
0.431449655120713E+02
0.426566848924445E+02
0.420186844611343E+02
0.413355302338721E+02
0.406508904525538E+02
0.399772289299245E+02
0.393174895390704E+02
0.386727153492721E+02
0.380437160286810E+02
0.374313102452534E+02
0.368363486349190E+02
0.362597140945229E+02
0.357023200518216E+02
0.351651080161535E+02
0.346490443848277E+02
0.341551164326910E+02
0.336843274209855E+02
0.332376907765562E+02
0.328162233134677E+02
0.324209374965798E+02
0.320528327806251E+02
0.317128860983432E+02
0.314020416160882E+02
0.311211999231449E+02
0.308712068691004E+02
0.306528423086890E+02
0.304668090517416E+02
0.303137223432396E+02
0.301941002112893E+02
0.301083550161033E+02
0.300567865090559E+02
0.300395766674088E+02
0.300567865090559E+02
0.301083550161033E+02
0.301941002112893E+02
0.303137223432396E+02
0.304668090517416E+02
0.306528423086890E+02
0.308712068691004E+02
0.311211999231449E+02
0.314020416160882E+02
0.317128860983432E+02
0.320528327806251E+02
0.324209374965798E+02
0.328162233134677E+02
0.332376907765562E+02
0.336843274209855E+02
0.341551164326910E+02
0.346490443848277E+02
0.351651080161535E+02
0.357023200518216E+02
0.362597140945229E+02
0.368363486349190E+02
0.374313102452534E+02
0.380437160286810E+02
0.386727153492721E+02
0.393174895390704E+02
0.399772289299245E+02
0.406508904525538E+02
0.413355302338721E+02
0.420186844611343E+02
0.426566848924445E+02
0.431449655120713E+02
0.433344494622946E+02
0.424805630703514E+02
0.419842538145246E+02
0.413355302338721E+02
0.406405526439802E+02
0.399436614264586E+02
0.392575165112916E+02
0.385851133348119E+02
0.379275197900487E+02
0.372855698406149E+02
0.366601100277037E+02
0.360520231195279E+02
0.354622287161967E+02
0.348916817715824E+02
0.343413703403587E+02
0.338123125066168E+02
0.333055524000119E+02
0.328221552126497E+02
0.323632011444974E+02
0.319297782271332E+02
0.315229740059382E+02
0.311438660997373E+02
0.307935117041480E+02
0.304729361593679E+02
0.301831207627063E+02
0.299249900676566E+02
0.296993989704955E+02
0.295071199372845E+02
0.293488307633173E+02
0.292251032782927E+02
0.291363934094202E+02
0.290830329884974E+02
0.290652236371187E+02
0.290830329884974E+02
0.291363934094202E+02
0.292251032782927E+02
0.293488307633173E+02
0.295071199372845E+02
0.296993989704955E+02
0.299249900676566E+02
0.301831207627063E+02
0.304729361593679E+02
0.307935117041480E+02
0.311438660997373E+02
0.315229740059382E+02
0.319297782271332E+02
0.323632011444974E+02
0.328221552126497E+02
0.333055524000119E+02
0.338123125066168E+02
0.343413703403587E+02
0.348916817715824E+02
0.354622287161967E+02
0.360520231195279E+02
0.366601100277037E+02
0.372855698406149E+02
0.379275197900487E+02
0.385851133348119E+02
0.392575165112916E+02
0.399436614264586E+02
0.406405526439802E+02
0.413355302338721E+02
0.419842538145246E+02
0.424805630703514E+02
0.426731252105118E+02
0.418153373157100E+02
0.413107160247707E+02
0.406508904525538E+02
0.399436614264586E+02
0.392340563705925E+02
0.385349337205976E+02
0.378493400539408E+02
0.371783674253687E+02
0.365228736618132E+02
0.358837330902832E+02
0.352618609485498E+02
0.346582143845996E+02
0.340737913174787E+02
0.335096284700050E+02
0.329667985076535E+02
0.324464061635233E+02
0.319495832340529E+02
0.314774823433342E+02
0.310312693961160E+02
0.306121146722361E+02
0.302211825591731E+02
0.298596199747901E+02
0.295285435982315E+02
0.292290261010858E+02
0.289620816495690E+02
0.287286510263591E+02
0.285295867912487E+02
0.283656389556252E+02
0.282374416795585E+02
0.281455015055552E+02
0.280901876154294E+02
0.280717245347829E+02
0.280901876154294E+02
0.281455015055552E+02
0.282374416795585E+02
0.283656389556252E+02
0.285295867912487E+02
0.287286510263591E+02
0.289620816495690E+02
0.292290261010858E+02
0.295285435982315E+02
0.298596199747901E+02
0.302211825591731E+02
0.306121146722361E+02
0.310312693961160E+02
0.314774823433342E+02
0.319495832340529E+02
0.324464061635233E+02
0.329667985076535E+02
0.335096284700050E+02
0.340737913174787E+02
0.346582143845996E+02
0.352618609485498E+02
0.358837330902832E+02
0.365228736618132E+02
0.371783674253687E+02
0.378493400539408E+02
0.385349337205976E+02
0.392340563705925E+02
0.399436614264586E+02
0.406508904525538E+02
0.413107160247707E+02
0.418153373157100E+02
0.420110876671245E+02
0.411614229789867E+02
0.406483509330136E+02
0.399772289299245E+02
0.392575165112916E+02
0.385349337205976E+02
0.378225376294737E+02
0.371234246903466E+02
0.364387097223559E+02
0.357692731948347E+02
0.351160162839956E+02
0.344798861317690E+02
0.338618773333901E+02
0.332630312391495E+02
0.326844343810533E+02
0.321272159331883E+02
0.315925440548579E+02
0.310816209663187E+02
0.305956766172196E+02
0.301359608289310E+02
0.297037338259768E+02
0.293002551204183E+02
0.289267707771336E+02
0.285844991670132E+02
0.282746154069610E+02
0.279982347859712E+02
0.277563955789292E+02
0.275500417456175E+02
0.273800060916895E+02
0.272469945206669E+02
0.271515720218785E+02
0.270941510117545E+02
0.270749825721694E+02
0.270941510117545E+02
0.271515720218785E+02
0.272469945206669E+02
0.273800060916895E+02
0.275500417456175E+02
0.277563955789292E+02
0.279982347859712E+02
0.282746154069610E+02
0.285844991670132E+02
0.289267707771336E+02
0.293002551204183E+02
0.297037338259768E+02
0.301359608289310E+02
0.305956766172196E+02
0.310816209663187E+02
0.315925440548579E+02
0.321272159331883E+02
0.326844343810533E+02
0.332630312391495E+02
0.338618773333901E+02
0.344798861317690E+02
0.351160162839956E+02
0.357692731948347E+02
0.364387097223559E+02
0.371234246903466E+02
0.378225376294737E+02
0.385349337205976E+02
0.392575165112916E+02
0.399772289299245E+02
0.406483509330136E+02
0.411614229789867E+02
0.413604139186222E+02
0.405216750471571E+02
0.400000530401580E+02
0.393174895390704E+02
0.385851133348119E+02
0.378493400539408E+02
0.371234246903466E+02
0.364105118050498E+02
0.357117371011297E+02
0.350280019547918E+02
0.343602329079863E+02
0.337094078705244E+02
0.330765582018008E+02
0.324627685720017E+02
0.318691759121022E+02
0.312969673326602E+02
0.307473768246090E+02
0.302216805500285E+02
0.297211905361135E+02
0.292472466034040E+02
0.288012063929897E+02
0.283844334096700E+02
0.279982830708991E+02
0.276440868452020E+02
0.273231346768223E+02
0.270366560210239E+02
0.267857999488654E+02
0.265716149103598E+02
0.263950288571628E+02
0.262568305055452E+02
0.261576525534180E+02
0.260979576407761E+02
0.260780277557871E+02
0.260979576407761E+02
0.261576525534180E+02
0.262568305055452E+02
0.263950288571628E+02
0.265716149103598E+02
0.267857999488654E+02
0.270366560210239E+02
0.273231346768223E+02
0.276440868452020E+02
0.279982830708991E+02
0.283844334096700E+02
0.288012063929897E+02
0.292472466034040E+02
0.297211905361135E+02
0.302216805500285E+02
0.307473768246090E+02
0.312969673326602E+02
0.318691759121022E+02
0.324627685720017E+02
0.330765582018008E+02
0.337094078705244E+02
0.343602329079863E+02
0.350280019547918E+02
0.357117371011297E+02
0.364105118050498E+02
0.371234246903466E+02
0.378493400539408E+02
0.385851133348119E+02
0.393174895390704E+02
0.400000530401580E+02
0.405216750471571E+02
0.407239429116106E+02
0.398970941467033E+02
0.393668416606721E+02
0.386727153492721E+02
0.379275197900487E+02
0.371783674253687E+02
0.364387097223559E+02
0.357117371011297E+02
0.349986037985750E+02
0.343002298572624E+02
0.336175651586825E+02
0.329516166714053E+02
0.323034512454325E+02
0.316741961688506E+02
0.310650387935507E+02
0.304772250783613E+02
0.299120568219436E+02
0.293708873440453E+02
0.288551153710042E+02
0.283661768929843E+02
0.279055347908635E+02
0.274746660844404E+02
0.270750467343627E+02
0.267081340398690E+02
0.263753468123305E+02
0.260780436661022E+02
0.258174999441941E+02
0.255948839727087E+02
0.254112334965746E+02
0.252674332689529E+02
0.251641948271202E+02
0.251020394716877E+02
0.250812853642281E+02
0.251020394716877E+02
0.251641948271202E+02
0.252674332689529E+02
0.254112334965746E+02
0.255948839727087E+02
0.258174999441941E+02
0.260780436661022E+02
0.263753468123305E+02
0.267081340398690E+02
0.270750467343627E+02
0.274746660844404E+02
0.279055347908635E+02
0.283661768929843E+02
0.288551153710042E+02
0.293708873440453E+02
0.299120568219436E+02
0.304772250783613E+02
0.310650387935507E+02
0.316741961688506E+02
0.323034512454325E+02
0.329516166714053E+02
0.336175651586825E+02
0.343002298572624E+02
0.349986037985750E+02
0.357117371011297E+02
0.364387097223559E+02
0.371783674253687E+02
0.379275197900487E+02
0.386727153492721E+02
0.393668416606721E+02
0.398970941467033E+02
0.401026678208835E+02
0.392884494085681E+02
0.387495035519568E+02
0.380437160286810E+02
0.372855698406149E+02
0.365228736618132E+02
0.357692731948347E+02
0.350280019547918E+02
0.343002298572624E+02
0.335868928181395E+02
0.328889614269013E+02
0.322074693495788E+02
0.315435169657181E+02
0.308982727738212E+02
0.302729738693833E+02
0.296689253102099E+02
0.290874980960178E+02
0.285301254638508E+02
0.279982971863908E+02
0.274935515613120E+02
0.270174648027477E+02
0.265716375973890E+02
0.261576786739353E+02
0.257771853600660E+02
0.254317212670992E+02
0.251227914453703E+02
0.248518155829998E+02
0.246201000596653E+02
0.244288098907854E+02
0.242789417766664E+02
0.241712995749710E+02
0.241064735167623E+02
0.240848243698450E+02
0.241064735167623E+02
0.241712995749710E+02
0.242789417766664E+02
0.244288098907854E+02
0.246201000596653E+02
0.248518155829998E+02
0.251227914453703E+02
0.254317212670992E+02
0.257771853600660E+02
0.261576786739353E+02
0.265716375973890E+02
0.270174648027477E+02
0.274935515613120E+02
0.279982971863908E+02
0.285301254638508E+02
0.290874980960178E+02
0.296689253102099E+02
0.302729738693833E+02
0.308982727738212E+02
0.315435169657181E+02
0.322074693495788E+02
0.328889614269013E+02
0.335868928181395E+02
0.343002298572624E+02
0.350280019547918E+02
0.357692731948347E+02
0.365228736618132E+02
0.372855698406149E+02
0.380437160286810E+02
0.387495035519568E+02
0.392884494085681E+02
0.394973509062521E+02
0.386965137558348E+02
0.381488314143511E+02
0.374313102452534E+02
0.366601100277037E+02
0.358837330902832E+02
0.351160162839956E+02
0.343602329079863E+02
0.336175651586825E+02
0.328889614269013E+02
0.321754097015453E+02
0.314779672394140E+02
0.307977651840737E+02
0.301360109894763E+02
0.294939899512118E+02
0.288730656258928E+02
0.282746788170176E+02
0.277003447646464E+02
0.271516481451582E+02
0.266302354721370E+02
0.261378044985274E+02
0.256760902632397E+02
0.252468475121792E+02
0.248518293626992E+02
0.244927622766691E+02
0.241713176594713E+02
0.238890807002137E+02
0.236475173912959E+02
0.234479409809447E+02
0.232914793789220E+02
0.231790452077195E+02
0.231113102274163E+02
0.230886857335525E+02
0.231113102274163E+02
0.231790452077195E+02
0.232914793789220E+02
0.234479409809447E+02
0.236475173912959E+02
0.238890807002137E+02
0.241713176594713E+02
0.244927622766691E+02
0.248518293626992E+02
0.252468475121792E+02
0.256760902632397E+02
0.261378044985274E+02
0.266302354721370E+02
0.271516481451582E+02
0.277003447646464E+02
0.282746788170176E+02
0.288730656258928E+02
0.294939899512118E+02
0.301360109894763E+02
0.307977651840737E+02
0.314779672394140E+02
0.321754097015453E+02
0.328889614269013E+02
0.336175651586825E+02
0.343602329079863E+02
0.351160162839956E+02
0.358837330902832E+02
0.366601100277037E+02
0.374313102452534E+02
0.381488314143511E+02
0.386965137558348E+02
0.389087574403578E+02
0.381220857988013E+02
0.375656462596360E+02
0.368363486349190E+02
0.360520231195279E+02
0.352618609485498E+02
0.344798861317690E+02
0.337094078705244E+02
0.329516166714053E+02
0.322074693495788E+02
0.314779672394140E+02
0.307641872424462E+02
0.300672875730878E+02
0.293885113828957E+02
0.287291895685893E+02
0.280907425119296E+02
0.274746803799767E+02
0.268826015533255E+02
0.263161886962797E+02
0.257772019438444E+02
0.252674686668385E+02
0.247888693016612E+02
0.243433188100608E+02
0.239327434810349E+02
0.235590530127898E+02
0.232241081213053E+02
0.229296843055464E+02
0.226774328339716E+02
0.224688404611100E+02
0.223051897786115E+02
0.221875223845843E+02
0.221166071523668E+02
0.220929157464438E+02
0.221166071523668E+02
0.221875223845843E+02
0.223051897786115E+02
0.224688404611100E+02
0.226774328339716E+02
0.229296843055464E+02
0.232241081213053E+02
0.235590530127898E+02
0.239327434810349E+02
0.243433188100608E+02
0.247888693016612E+02
0.252674686668385E+02
0.257772019438444E+02
0.263161886962797E+02
0.268826015533255E+02
0.274746803799767E+02
0.280907425119296E+02
0.287291895685893E+02
0.293885113828957E+02
0.300672875730878E+02
0.307641872424462E+02
0.314779672394140E+02
0.322074693495788E+02
0.329516166714053E+02
0.337094078705244E+02
0.344798861317690E+02
0.352618609485498E+02
0.360520231195279E+02
0.368363486349190E+02
0.375656462596360E+02
0.381220857988013E+02
0.383376774014644E+02
0.375659897360337E+02
0.370007974682728E+02
0.362597140945229E+02
0.354622287161967E+02
0.346582143845996E+02
0.338618773333901E+02
0.330765582018008E+02
0.323034512454325E+02
0.315435169657181E+02
0.307977651840737E+02
0.300672875730878E+02
0.293532646741017E+02
0.286569709124699E+02
0.279797789244371E+02
0.273231629164421E+02
0.266887006378153E+02
0.260780734623252E+02
0.254930639908590E+02
0.249355505150757E+02
0.244074976336624E+02
0.239109423065065E+02
0.234479746889340E+02
0.230207132310066E+02
0.226312737764961E+02
0.222817327656631E+02
0.219740851335792E+02
0.217101980773875E+02
0.214917624897616E+02
0.213202444419352E+02
0.211968395475596E+02
0.211224332441976E+02
0.210975699091763E+02
0.211224332441976E+02
0.211968395475596E+02
0.213202444419352E+02
0.214917624897616E+02
0.217101980773875E+02
0.219740851335792E+02
0.222817327656631E+02
0.226312737764961E+02
0.230207132310066E+02
0.234479746889340E+02
0.239109423065065E+02
0.244074976336624E+02
0.249355505150757E+02
0.254930639908590E+02
0.260780734623252E+02
0.266887006378153E+02
0.273231629164421E+02
0.279797789244371E+02
0.286569709124699E+02
0.293532646741017E+02
0.300672875730878E+02
0.307977651840737E+02
0.315435169657181E+02
0.323034512454325E+02
0.330765582018008E+02
0.338618773333901E+02
0.346582143845996E+02
0.354622287161967E+02
0.362597140945229E+02
0.370007974682728E+02
0.375659897360337E+02
0.377849253161761E+02
0.370290733419587E+02
0.364551608832401E+02
0.357023200518216E+02
0.348916817715824E+02
0.340737913174787E+02
0.332630312391495E+02
0.324627685720017E+02
0.316741961688506E+02
0.308982727738212E+02
0.301360109894763E+02
0.293885113828957E+02
0.286569709124699E+02
0.279426895243844E+02
0.272470762515170E+02
0.265716545178350E+02
0.259180661890475E+02
0.252880737956477E+02
0.246835602341751E+02
0.241065251353910E+02
0.235590769897395E+02
0.230434200633581E+02
0.225618351511936E+02
0.221166533319394E+02
0.217102221480133E+02
0.213448640617004E+02
0.210228276475424E+02
0.207462327524487E+02
0.205170117281745E+02
0.203368497077891E+02
0.202071276103205E+02
0.201288719509853E+02
0.201027154655275E+02
0.201288719509853E+02
0.202071276103205E+02
0.203368497077891E+02
0.205170117281745E+02
0.207462327524487E+02
0.210228276475424E+02
0.213448640617004E+02
0.217102221480133E+02
0.221166533319394E+02
0.225618351511936E+02
0.230434200633581E+02
0.235590769897395E+02
0.241065251353910E+02
0.246835602341751E+02
0.252880737956477E+02
0.259180661890475E+02
0.265716545178350E+02
0.272470762515170E+02
0.279426895243844E+02
0.286569709124699E+02
0.293885113828957E+02
0.301360109894763E+02
0.308982727738212E+02
0.316741961688506E+02
0.324627685720017E+02
0.332630312391495E+02
0.340737913174787E+02
0.348916817715824E+02
0.357023200518216E+02
0.364551608832401E+02
0.370290733419587E+02
0.372513382109225E+02
0.365122053271502E+02
0.359296362367504E+02
0.351651080161535E+02
0.343413703403587E+02
0.335096284700050E+02
0.326844343810533E+02
0.318691759121022E+02
0.310650387935507E+02
0.302729738693833E+02
0.294939899512118E+02
0.287291895685893E+02
0.279797789244371E+02
0.272470762515170E+02
0.265325199358381E+02
0.258376761076403E+02
0.251642452148199E+02
0.245140669463458E+02
0.238891227083501E+02
0.232915346811248E+02
0.227235603178999E+02
0.221875810126259E+02
0.216860836021888E+02
0.212216334278785E+02
0.207968379181919E+02
0.204143001250218E+02
0.200765623853399E+02
0.197860412892872E+02
0.195449563501998E+02
0.193552560519109E+02
0.192185460773999E+02
0.191360252390587E+02
0.191084346890793E+02
0.191360252390587E+02
0.192185460773999E+02
0.193552560519109E+02
0.195449563501998E+02
0.197860412892872E+02
0.200765623853399E+02
0.204143001250218E+02
0.207968379181919E+02
0.212216334278785E+02
0.216860836021888E+02
0.221875810126259E+02
0.227235603178999E+02
0.232915346811248E+02
0.238891227083501E+02
0.245140669463458E+02
0.251642452148199E+02
0.258376761076403E+02
0.265325199358381E+02
0.272470762515170E+02
0.279797789244371E+02
0.287291895685893E+02
0.294939899512118E+02
0.302729738693833E+02
0.310650387935507E+02
0.318691759121022E+02
0.326844343810533E+02
0.335096284700050E+02
0.343413703403587E+02
0.351651080161535E+02
0.359296362367504E+02
0.365122053271502E+02
0.367377729516880E+02
0.360162720710045E+02
0.354251438997020E+02
0.346490443848277E+02
0.338123125066168E+02
0.329667985076535E+02
0.321272159331883E+02
0.312969673326602E+02
0.304772250783613E+02
0.296689253102099E+02
0.288730656258928E+02
0.280907425119296E+02
0.273231629164421E+02
0.265716545178350E+02
0.258376761076403E+02
0.251228278078328E+02
0.244288606349145E+02
0.237576847415868E+02
0.231113754514913E+02
0.224921759582009E+02
0.219024953016889E+02
0.213448999928399E+02
0.208220974758197E+02
0.203369095661436E+02
0.198922341643874E+02
0.194909940159719E+02
0.191360721490767E+02
0.188302349137444E+02
0.185760452178458E+02
0.183757704381416E+02
0.182312912678341E+02
0.181440190323800E+02
0.181148293393635E+02
0.181440190323800E+02
0.182312912678341E+02
0.183757704381416E+02
0.185760452178458E+02
0.188302349137444E+02
0.191360721490767E+02
0.194909940159719E+02
0.198922341643874E+02
0.203369095661436E+02
0.208220974758197E+02
0.213448999928399E+02
0.219024953016889E+02
0.224921759582009E+02
0.231113754514913E+02
0.237576847415868E+02
0.244288606349145E+02
0.251228278078328E+02
0.258376761076403E+02
0.265716545178350E+02
0.273231629164421E+02
0.280907425119296E+02
0.288730656258928E+02
0.296689253102099E+02
0.304772250783613E+02
0.312969673326602E+02
0.321272159331883E+02
0.329667985076535E+02
0.338123125066168E+02
0.346490443848277E+02
0.354251438997020E+02
0.360162720710045E+02
0.362451029750329E+02
0.355421736824179E+02
0.349426208981922E+02
0.341551164326910E+02
0.333055524000119E+02
0.324464061635233E+02
0.315925440548579E+02
0.307473768246090E+02
0.299120568219436E+02
0.290874980960178E+02
0.282746788170176E+02
0.274746803799767E+02
0.266887006378153E+02
0.259180661890475E+02
0.251642452148199E+02
0.244288606349145E+02
0.237137031266019E+02
0.230207433368119E+02
0.223521423500195E+02
0.217102591500529E+02
0.210976534436699E+02
0.205170818241092E+02
0.199714848957862E+02
0.194639627413568E+02
0.189977361102771E+02
0.185760910946706E+02
0.182023059913351E+02
0.178795606451592E+02
0.176108308351570E+02
0.173987730159378E+02
0.172456075378407E+02
0.171530106898613E+02
0.171220268075028E+02
0.171530106898613E+02
0.172456075378407E+02
0.173987730159378E+02
0.176108308351570E+02
0.178795606451592E+02
0.182023059913351E+02
0.185760910946706E+02
0.189977361102771E+02
0.194639627413568E+02
0.199714848957862E+02
0.205170818241092E+02
0.210976534436699E+02
0.217102591500529E+02
0.223521423500195E+02
0.230207433368119E+02
0.237137031266019E+02
0.244288606349145E+02
0.251642452148199E+02
0.259180661890475E+02
0.266887006378153E+02
0.274746803799767E+02
0.282746788170176E+02
0.290874980960178E+02
0.299120568219436E+02
0.307473768246090E+02
0.315925440548579E+02
0.324464061635233E+02
0.333055524000119E+02
0.341551164326910E+02
0.349426208981922E+02
0.355421736824179E+02
0.357742143700869E+02
0.350908193535875E+02
0.344830161507185E+02
0.336843274209855E+02
0.328221552126497E+02
0.319495832340529E+02
0.310816209663187E+02
0.302216805500285E+02
0.293708873440453E+02
0.285301254638508E+02
0.277003447646464E+02
0.268826015533255E+02
0.260780734623252E+02
0.252880737956477E+02
0.245140669463458E+02
0.237576847415868E+02
0.230207433368119E+02
0.223052600430594E+02
0.216134691549471E+02
0.209478354391300E+02
0.203110634426802E+02
0.197061002049286E+02
0.191361283538419E+02
0.186045460356361E+02
0.181149298227932E+02
0.176709768963069E+02
0.172764236755046E+02
0.169349399335315E+02
0.166500004257832E+02
0.164247400355135E+02
0.162618028548744E+02
0.161631994717075E+02
0.161301887516335E+02
0.161631994717075E+02
0.162618028548744E+02
0.164247400355135E+02
0.166500004257832E+02
0.169349399335315E+02
0.172764236755046E+02
0.176709768963069E+02
0.181149298227932E+02
0.186045460356361E+02
0.191361283538419E+02
0.197061002049286E+02
0.203110634426802E+02
0.209478354391300E+02
0.216134691549471E+02
0.223052600430594E+02
0.230207433368119E+02
0.237576847415868E+02
0.245140669463458E+02
0.252880737956477E+02
0.260780734623252E+02
0.268826015533255E+02
0.277003447646464E+02
0.285301254638508E+02
0.293708873440453E+02
0.302216805500285E+02
0.310816209663187E+02
0.319495832340529E+02
0.328221552126497E+02
0.336843274209855E+02
0.344830161507185E+02
0.350908193535875E+02
0.353260012807362E+02
0.346631219863450E+02
0.340472848943985E+02
0.332376907765562E+02
0.323632011444974E+02
0.314774823433342E+02
0.305956766172196E+02
0.297211905361135E+02
0.288551153710042E+02
0.279982971863908E+02
0.271516481451582E+02
0.263161886962797E+02
0.254930639908590E+02
0.246835602341751E+02
0.238891227083501E+02
0.231113754514913E+02
0.223521423500195E+02
0.216134691549471E+02
0.208976455821186E+02
0.202072261734871E+02
0.195450479602292E+02
0.189142421742868E+02
0.183182363335175E+02
0.177607420700908E+02
0.172457232699939E+02
0.167773387540883E+02
0.163598542930360E+02
0.159975207102153E+02
0.156944185989345E+02
0.154542758179574E+02
0.152802708165559E+02
0.151748414903471E+02
0.151395234890853E+02
0.151748414903471E+02
0.152802708165559E+02
0.154542758179574E+02
0.156944185989345E+02
0.159975207102153E+02
0.163598542930360E+02
0.167773387540883E+02
0.172457232699939E+02
0.177607420700908E+02
0.183182363335175E+02
0.189142421742868E+02
0.195450479602292E+02
0.202072261734871E+02
0.208976455821186E+02
0.216134691549471E+02
0.223521423500195E+02
0.231113754514913E+02
0.238891227083501E+02
0.246835602341751E+02
0.254930639908590E+02
0.263161886962797E+02
0.271516481451582E+02
0.279982971863908E+02
0.288551153710042E+02
0.297211905361135E+02
0.305956766172196E+02
0.314774823433342E+02
0.323632011444974E+02
0.332376907765562E+02
0.340472848943985E+02
0.346631219863450E+02
0.349013606113190E+02
0.342599920888838E+02
0.336363822881846E+02
0.328162233134677E+02
0.319297782271332E+02
0.310312693961160E+02
0.301359608289310E+02
0.292472466034040E+02
0.283661768929843E+02
0.274935515613120E+02
0.266302354721370E+02
0.257772019438444E+02
0.249355505150757E+02
0.241065251353910E+02
0.232915346811248E+02
0.224921759582009E+02
0.217102591500529E+02
0.209478354391300E+02
0.202072261734871E+02
0.194910524185158E+02
0.188022629781056E+02
0.181441579470329E+02
0.175204035551426E+02
0.169350325416218E+02
0.163924227399783E+02
0.158972453444471E+02
0.154543741017246E+02
0.150687482966798E+02
0.147451867994879E+02
0.144881581712365E+02
0.143015224368495E+02
0.141882715647489E+02
0.141503042111446E+02
0.141882715647489E+02
0.143015224368495E+02
0.144881581712365E+02
0.147451867994879E+02
0.150687482966798E+02
0.154543741017246E+02
0.158972453444471E+02
0.163924227399783E+02
0.169350325416218E+02
0.175204035551426E+02
0.181441579470329E+02
0.188022629781056E+02
0.194910524185158E+02
0.202072261734871E+02
0.209478354391300E+02
0.217102591500529E+02
0.224921759582009E+02
0.232915346811248E+02
0.241065251353910E+02
0.249355505150757E+02
0.257772019438444E+02
0.266302354721370E+02
0.274935515613120E+02
0.283661768929843E+02
0.292472466034040E+02