<?xml version="1.0"?>
<VTKFile type="RectilinearGrid" version="0.1" byte_order="LittleEndian">
<RectilinearGrid WholeExtent="0   63    0   63    0    3">
<Piece Extent="0   63    0   63    0    3">
<Coordinates>
<DataArray Name="x" type="Float32" format="ascii">
0.000000000000000E+00
0.100000000000000E+00
0.200000000000000E+00
0.300000000000000E+00
0.400000000000000E+00
0.500000000000000E+00
0.600000000000000E+00
0.700000000000000E+00
0.800000000000000E+00
0.900000000000000E+00
0.100000000000000E+01
0.110000000000000E+01
0.120000000000000E+01
0.130000000000000E+01
0.140000000000000E+01
0.150000000000000E+01
0.160000000000000E+01
0.170000000000000E+01
0.180000000000000E+01
0.190000000000000E+01
0.200000000000000E+01
0.210000000000000E+01
0.220000000000000E+01
0.230000000000000E+01
0.240000000000000E+01
0.250000000000000E+01
0.260000000000000E+01
0.270000000000000E+01
0.280000000000000E+01
0.290000000000000E+01
0.300000000000000E+01
0.310000000000000E+01
0.320000000000000E+01
0.330000000000000E+01
0.340000000000000E+01
0.350000000000000E+01
0.360000000000000E+01
0.370000000000000E+01
0.380000000000000E+01
0.390000000000000E+01
0.400000000000000E+01
0.410000000000000E+01
0.420000000000000E+01
0.430000000000000E+01
0.440000000000000E+01
0.450000000000000E+01
0.460000000000000E+01
0.470000000000000E+01
0.480000000000000E+01
0.490000000000000E+01
0.500000000000000E+01
0.510000000000000E+01
0.520000000000000E+01
0.530000000000000E+01
0.540000000000000E+01
0.550000000000000E+01
0.560000000000000E+01
0.570000000000000E+01
0.580000000000000E+01
0.590000000000000E+01
0.600000000000000E+01
0.610000000000000E+01
0.620000000000000E+01
0.630000000000000E+01
</DataArray>
<DataArray Name="y" type="Float32" format="ascii">
0.000000000000000E+00
0.100000000000000E+00
0.200000000000000E+00
0.300000000000000E+00
0.400000000000000E+00
0.500000000000000E+00
0.600000000000000E+00
0.700000000000000E+00
0.800000000000000E+00
0.900000000000000E+00
0.100000000000000E+01
0.110000000000000E+01
0.120000000000000E+01
0.130000000000000E+01
0.140000000000000E+01
0.150000000000000E+01
0.160000000000000E+01
0.170000000000000E+01
0.180000000000000E+01
0.190000000000000E+01
0.200000000000000E+01
0.210000000000000E+01
0.220000000000000E+01
0.230000000000000E+01
0.240000000000000E+01
0.250000000000000E+01
0.260000000000000E+01
0.270000000000000E+01
0.280000000000000E+01
0.290000000000000E+01
0.300000000000000E+01
0.310000000000000E+01
0.320000000000000E+01
0.330000000000000E+01
0.340000000000000E+01
0.350000000000000E+01
0.360000000000000E+01
0.370000000000000E+01
0.380000000000000E+01
0.390000000000000E+01
0.400000000000000E+01
0.410000000000000E+01
0.420000000000000E+01
0.430000000000000E+01
0.440000000000000E+01
0.450000000000000E+01
0.460000000000000E+01
0.470000000000000E+01
0.480000000000000E+01
0.490000000000000E+01
0.500000000000000E+01
0.510000000000000E+01
0.520000000000000E+01
0.530000000000000E+01
0.540000000000000E+01
0.550000000000000E+01
0.560000000000000E+01
0.570000000000000E+01
0.580000000000000E+01
0.590000000000000E+01
0.600000000000000E+01
0.610000000000000E+01
0.620000000000000E+01
0.630000000000000E+01
</DataArray>
<DataArray Name="z" type="Float32" format="ascii">
0.000000000000000E+00
0.100000000000000E+00
0.200000000000000E+00
0.300000000000000E+00
</DataArray>
</Coordinates>
<PointData Scalars="c">
<DataArray type="Float32" Name="c" format="ascii">
0.446905632057140E+02
0.440690437448813E+02
0.433865872093103E+02
0.427091423972824E+02
0.420445760592566E+02
0.413938362319713E+02
0.407576017668253E+02
0.401365800007282E+02
0.395315063753403E+02
0.389431437122298E+02
0.383722810913449E+02
0.378197322783957E+02
0.372863336464017E+02
0.367729415382459E+02
0.362804290210617E+02
0.358096819901601E+02
0.353615945904318E+02
0.349370639371049E+02
0.345369841356226E+02
0.341622396222416E+02
0.338136978724603E+02
0.334922015529403E+02
0.331985602231738E+02
0.329335417243334E+02
0.326978634227296E+02
0.324921835019798E+02
0.323170925191132E+02
0.321731054531798E+02
0.320606544785514E+02
0.319800826875686E+02
0.319316389678215E+02
0.319154742083698E+02
0.319316389678215E+02
0.319800826875686E+02
0.320606544785514E+02
0.321731054531798E+02
0.323170925191132E+02
0.324921835019798E+02
0.326978634227296E+02
0.329335417243334E+02
0.331985602231738E+02
0.334922015529403E+02
0.338136978724603E+02
0.341622396222416E+02
0.345369841356226E+02
0.349370639371049E+02
0.353615945904318E+02
0.358096819901601E+02
0.362804290210617E+02
0.367729415382459E+02
0.372863336464017E+02
0.378197322783957E+02
0.383722810913449E+02
0.389431437122298E+02
0.395315063753403E+02
0.401365800007282E+02
0.407576017668253E+02
0.413938362319713E+02
0.420445760592566E+02
0.427091423972824E+02
0.433865872093103E+02
0.440690437448813E+02
0.446905632057140E+02
0.449978023391128E+02
0.440690437448813E+02
0.434384363280635E+02
0.427456354894619E+02
0.420575711191470E+02
0.413822359513201E+02
0.407205971150522E+02
0.400733503708485E+02
0.394412226776600E+02
0.388249720229119E+02
0.382253868977397E+02
0.376432853571091E+02
0.370795136012816E+02
0.365349440133652E+02
0.360104725879952E+02
0.355070156891359E+02
0.350255060812281E+02
0.345668881880374E+02
0.341321125481610E+02
0.337221294556168E+02
0.333378817984460E+02
0.329802971376413E+02
0.326502791023584E+02
0.323486982141945E+02
0.320763822916467E+02
0.318341066235321E+02
0.316225841345128E+02
0.314424557940252E+02
0.312942815389156E+02
0.311785319872795E+02
0.310955812143483E+02
0.310457008396718E+02
0.310290556384075E+02
0.310457008396718E+02
0.310955812143483E+02
0.311785319872795E+02
0.312942815389156E+02
0.314424557940252E+02
0.316225841345128E+02
0.318341066235321E+02
0.320763822916467E+02
0.323486982141945E+02
0.326502791023584E+02
0.329802971376413E+02
0.333378817984460E+02
0.337221294556168E+02
0.341321125481610E+02
0.345668881880374E+02
0.350255060812281E+02
0.355070156891359E+02
0.360104725879952E+02
0.365349440133652E+02
0.370795136012816E+02
0.376432853571091E+02
0.382253868977397E+02
0.388249720229119E+02
0.394412226776600E+02
0.400733503708485E+02
0.407205971150522E+02
0.413822359513201E+02
0.420575711191470E+02
0.427456354894619E+02
0.434384363280635E+02
0.440690437448813E+02
0.443806007999868E+02
0.433865872093103E+02
0.427456354894619E+02
0.420411254591871E+02
0.413410370407042E+02
0.406534909820157E+02
0.399794744148136E+02
0.393197012644557E+02
0.386749198371326E+02
0.380459129252691E+02
0.374334975502929E+02
0.368385242732751E+02
0.362618759988147E+02
0.357044661938398E+02
0.351672364413983E+02
0.346511532507803E+02
0.341572040502835E+02
0.336863922984671E+02
0.332397316646691E+02
0.328182392505628E+02
0.324229278520273E+02
0.320547972946548E+02
0.317148249162929E+02
0.314039553149896E+02
0.311230895286458E+02
0.308730738609419E+02
0.306546886133203E+02
0.304686370211615E+02
0.303155347197841E+02
0.301959000787889E+02
0.301101457385778E+02
0.300585716588298E+02
0.300413599451629E+02
0.300585716588298E+02
0.301101457385778E+02
0.301959000787889E+02
0.303155347197841E+02
0.304686370211615E+02
0.306546886133203E+02
0.308730738609419E+02
0.311230895286458E+02
0.314039553149896E+02
0.317148249162929E+02
0.320547972946548E+02
0.324229278520273E+02
0.328182392505628E+02
0.332397316646691E+02
0.336863922984671E+02
0.341572040502835E+02
0.346511532507803E+02
0.351672364413983E+02
0.357044661938398E+02
0.362618759988147E+02
0.368385242732751E+02
0.374334975502929E+02
0.380459129252691E+02
0.386749198371326E+02
0.393197012644557E+02
0.399794744148136E+02
0.406534909820157E+02
0.413410370407042E+02
0.420411254591871E+02
0.427456354894619E+02
0.433865872093103E+02
0.437031357959448E+02
0.427091423972824E+02
0.420575711191470E+02
0.413410370407042E+02
0.406285815789637E+02
0.399284537974169E+02
0.392416599047440E+02
0.385689311710277E+02
0.379110366414155E+02
0.372687835715387E+02
0.366430174985172E+02
0.360346218682776E+02
0.354445171323642E+02
0.348736592211571E+02
0.343230372962109E+02
0.337936706832380E+02
0.332866048901554E+02
0.328029066227531E+02
0.323436577251073E+02
0.319099479939199E+02
0.315028668463318E+02
0.311234938598078E+02
0.307728882501474E+02
0.304520774084248E+02
0.301620446775646E+02
0.299037166111197E+02
0.296779500163895E+02
0.294855191362579E+02
0.293271033635972E+02
0.292032759035168E+02
0.291144937977284E+02
0.290610896990518E+02
0.290432657319652E+02
0.290610896990518E+02
0.291144937977284E+02
0.292032759035168E+02
0.293271033635972E+02
0.294855191362579E+02
0.296779500163895E+02
0.299037166111197E+02
0.301620446775646E+02
0.304520774084248E+02
0.307728882501474E+02
0.311234938598078E+02
0.315028668463318E+02
0.319099479939199E+02
0.323436577251073E+02
0.328029066227531E+02
0.332866048901554E+02
0.337936706832380E+02
0.343230372962109E+02
0.348736592211571E+02
0.354445171323642E+02
0.360346218682776E+02
0.366430174985172E+02
0.372687835715387E+02
0.379110366414155E+02
0.385689311710277E+02
0.392416599047440E+02
0.399284537974169E+02
0.406285815789637E+02
0.413410370407042E+02
0.420575711191470E+02
0.427091423972824E+02
0.430308339390759E+02
0.420445760592566E+02
0.413822359513201E+02
0.406534909820157E+02
0.399284537974169E+02
0.392155015148682E+02
0.385156580297276E+02
0.378296706324765E+02
0.371583279507332E+02
0.365024607727875E+02
0.358629425131019E+02
0.352406892304555E+02
0.346366590989137E+02
0.340518512222931E+02
0.334873036751594E+02
0.329440906487708E+02
0.324233185801228E+02
0.319261211478735E+02
0.314536530320694E+02
0.310070823568441E+02
0.305875817679910E+02
0.301963181414295E+02
0.298344409742347E+02
0.295030695761518E+02
0.292032792541237E+02
0.289360867615271E+02
0.287024353622401E+02
0.285031799307332E+02
0.283390725656726E+02
0.282107492286113E+02
0.281187179247592E+02
0.280633489151144E+02
0.280448673869711E+02
0.280633489151144E+02
0.281187179247592E+02
0.282107492286113E+02
0.283390725656726E+02
0.285031799307332E+02
0.287024353622401E+02
0.289360867615271E+02
0.292032792541237E+02
0.295030695761518E+02
0.298344409742347E+02
0.301963181414295E+02
0.305875817679910E+02
0.310070823568441E+02
0.314536530320694E+02
0.319261211478735E+02
0.324233185801228E+02
0.329440906487708E+02
0.334873036751594E+02
0.340518512222931E+02
0.346366590989137E+02
0.352406892304555E+02
0.358629425131019E+02
0.365024607727875E+02
0.371583279507332E+02
0.378296706324765E+02
0.385156580297276E+02
0.392155015148682E+02
0.399284537974169E+02
0.406534909820157E+02
0.413822359513201E+02
0.420445760592566E+02
0.423714802275731E+02
0.413938362319713E+02
0.407205971150522E+02
0.399794744148136E+02
0.392416599047440E+02
0.385156580297276E+02
0.378025086545786E+02
0.371029734176619E+02
0.364178589986951E+02
0.357480183930832E+02
0.350943518449892E+02
0.344578073398842E+02
0.338393805433148E+02
0.332401140591031E+02
0.326610958681416E+02
0.321034567996941E+02
0.315683668823068E+02
0.310570304230224E+02
0.305706796737678E+02
0.301105669648411E+02
0.296779552194972E+02
0.292741068124460E+02
0.289002707994670E+02
0.285576686248780E+02
0.282474785060498E+02
0.279708187952422E+02
0.277287307221830E+02
0.275221610174062E+02
0.273519449963165E+02
0.272187907367385E+02
0.271232649988039E+02
0.270657815084589E+02
0.270465921517371E+02
0.270657815084589E+02
0.271232649988039E+02
0.272187907367385E+02
0.273519449963165E+02
0.275221610174062E+02
0.277287307221830E+02
0.279708187952422E+02
0.282474785060498E+02
0.285576686248780E+02
0.289002707994670E+02
0.292741068124460E+02
0.296779552194972E+02
0.301105669648411E+02
0.305706796737678E+02
0.310570304230224E+02
0.315683668823068E+02
0.321034567996941E+02
0.326610958681416E+02
0.332401140591031E+02
0.338393805433148E+02
0.344578073398842E+02
0.350943518449892E+02
0.357480183930832E+02
0.364178589986951E+02
0.371029734176619E+02
0.378025086545786E+02
0.385156580297276E+02
0.392416599047440E+02
0.399794744148136E+02
0.407205971150522E+02
0.413938362319713E+02
0.417260108333019E+02
0.407576017668253E+02
0.400733503708485E+02
0.393197012644557E+02
0.385689311710277E+02
0.378296706324765E+02
0.371029734176619E+02
0.363896134644750E+02
0.356904135644130E+02
0.350062471541418E+02
0.343380397954452E+02
0.336867702350271E+02
0.330534709175562E+02
0.324392278069735E+02
0.318451793535010E+02
0.312725144284658E+02
0.307224690379538E+02
0.301963216218466E+02
0.296953867498563E+02
0.292210070439151E+02
0.287745431899197E+02
0.283573619542439E+02
0.279708221936137E+02
0.276162589413302E+02
0.272949657666517E+02
0.270081757327437E+02
0.267570414140611E+02
0.265426145652105E+02
0.263658261465656E+02
0.262274674922873E+02
0.261281734398262E+02
0.260684082155606E+02
0.260484547835639E+02
0.260684082155606E+02
0.261281734398262E+02
0.262274674922873E+02
0.263658261465656E+02
0.265426145652105E+02
0.267570414140611E+02
0.270081757327437E+02
0.272949657666517E+02
0.276162589413302E+02
0.279708221936137E+02
0.283573619542439E+02
0.287745431899197E+02
0.292210070439151E+02
0.296953867498563E+02
0.301963216218466E+02
0.307224690379538E+02
0.312725144284658E+02
0.318451793535010E+02
0.324392278069735E+02
0.330534709175562E+02
0.336867702350271E+02
0.343380397954452E+02
0.350062471541418E+02
0.356904135644130E+02
0.363896134644750E+02
0.371029734176619E+02
0.378296706324765E+02
0.385689311710277E+02
0.393197012644557E+02
0.400733503708485E+02
0.407576017668253E+02
0.410950961695037E+02
0.401365800007282E+02
0.394412226776600E+02
0.386749198371326E+02
0.379110366414155E+02
0.371583279507332E+02
0.364178589986951E+02
0.356904135644130E+02
0.349768281557457E+02
0.342779943868451E+02
0.335948610893127E+02
0.329284360405493E+02
0.322797871701940E+02
0.316500430815008E+02
0.310403927001585E+02
0.304520838400082E+02
0.298864204555776E+02
0.293447583382650E+02
0.288284990100125E+02
0.283390815796703E+02
0.278779723575833E+02
0.274466520777641E+02
0.270466006580694E+02
0.266792795391123E+02
0.263461117814706E+02
0.260484602635200E+02
0.257876044996801E+02
0.255647167768624E+02
0.253808384669701E+02
0.252368574943386E+02
0.251334879981365E+02
0.250712532138861E+02
0.250504724958324E+02
0.250712532138861E+02
0.251334879981365E+02
0.252368574943386E+02
0.253808384669701E+02
0.255647167768624E+02
0.257876044996801E+02
0.260484602635200E+02
0.263461117814706E+02
0.266792795391123E+02
0.270466006580694E+02
0.274466520777641E+02
0.278779723575833E+02
0.283390815796703E+02
0.288284990100125E+02
0.293447583382650E+02
0.298864204555776E+02
0.304520838400082E+02
0.310403927001585E+02
0.316500430815008E+02
0.322797871701940E+02
0.329284360405493E+02
0.335948610893127E+02
0.342779943868451E+02
0.349768281557457E+02
0.356904135644130E+02
0.364178589986951E+02
0.371583279507332E+02
0.379110366414155E+02
0.386749198371326E+02
0.394412226776600E+02
0.401365800007282E+02
0.404794338527231E+02
0.395315063753403E+02
0.388249720229119E+02
0.380459129252691E+02
0.372687835715387E+02
0.365024607727875E+02
0.357480183930832E+02
0.350062471541418E+02
0.342779943868451E+02
0.335641670638030E+02
0.328657346291318E+02
0.321837315034644E+02
0.315192591144935E+02
0.308734872728435E+02
0.302476546807071E+02
0.296430683280562E+02
0.290611015007641E+02
0.285031901000393E+02
0.279708269576655E+02
0.274655538322016E+02
0.269889507939333E+02
0.265426227577649E+02
0.261281830096958E+02
0.257472336986550E+02
0.254013434326041E+02
0.250920223223149E+02
0.248206950478820E+02
0.245886727642215E+02
0.243971248878089E+02
0.242470519879119E+02
0.241392611105752E+02
0.240743448657908E+02
0.240526654909851E+02
0.240743448657908E+02
0.241392611105752E+02
0.242470519879119E+02
0.243971248878089E+02
0.245886727642215E+02
0.248206950478820E+02
0.250920223223149E+02
0.254013434326041E+02
0.257472336986550E+02
0.261281830096958E+02
0.265426227577649E+02
0.269889507939333E+02
0.274655538322016E+02
0.279708269576655E+02
0.285031901000393E+02
0.290611015007641E+02
0.296430683280562E+02
0.302476546807071E+02
0.308734872728435E+02
0.315192591144935E+02
0.321837315034644E+02
0.328657346291318E+02
0.335641670638030E+02
0.342779943868451E+02
0.350062471541418E+02
0.357480183930832E+02
0.365024607727875E+02
0.372687835715387E+02
0.380459129252691E+02
0.388249720229119E+02
0.395315063753403E+02
0.398797482296033E+02
0.389431437122298E+02
0.382253868977397E+02
0.374334975502929E+02
0.366430174985172E+02
0.358629425131019E+02
0.350943518449892E+02
0.343380397954452E+02
0.335948610893127E+02
0.328657346291318E+02
0.321516471312113E+02
0.314536565195542E+02
0.307728949205957E+02
0.301105710641273E+02
0.294679718542310E+02
0.288464628299334E+02
0.282474871910490E+02
0.276725630240473E+02
0.271232783310233E+02
0.266012834489566E+02
0.261082804549765E+02
0.256460091960782E+02
0.252162296686205E+02
0.248207006126110E+02
0.244611543833239E+02
0.241392684170101E+02
0.238566339082047E+02
0.236147226422246E+02
0.234148532452390E+02
0.232581583838083E+02
0.231455546198972E+02
0.230777166639086E+02
0.230550576385496E+02
0.230777166639086E+02
0.231455546198972E+02
0.232581583838083E+02
0.234148532452390E+02
0.236147226422246E+02
0.238566339082047E+02
0.241392684170101E+02
0.244611543833239E+02
0.248207006126110E+02
0.252162296686205E+02
0.256460091960782E+02
0.261082804549765E+02
0.266012834489566E+02
0.271232783310233E+02
0.276725630240473E+02
0.282474871910490E+02
0.288464628299334E+02
0.294679718542310E+02
0.301105710641273E+02
0.307728949205957E+02
0.314536565195542E+02
0.321516471312113E+02
0.328657346291318E+02
0.335948610893127E+02
0.343380397954452E+02
0.350943518449892E+02
0.358629425131019E+02
0.366430174985172E+02
0.374334975502929E+02
0.382253868977397E+02
0.389431437122298E+02
0.392967895657970E+02
0.383722810913449E+02
0.376432853571091E+02
0.368385242732751E+02
0.360346218682776E+02
0.352406892304555E+02
0.344578073398842E+02
0.336867702350271E+02
0.329284360405493E+02
0.321837315034644E+02
0.314536565195542E+02
0.307392885286441E+02
0.300417866192650E+02
0.293623951382789E+02
0.287024465493783E+02
0.280633632269622E+02
0.274466578109130E+02
0.268539316870485E+02
0.262868711033877E+02
0.257472403922419E+02
0.252368717535687E+02
0.247576510795197E+02
0.243114993786530E+02
0.239003495055415E+02
0.235261181287715E+02
0.231906731815816E+02
0.228957974266439E+02
0.226431492057701E+02
0.224342218944449E+02
0.222703039813428E+02
0.221524419757606E+02
0.220814084446423E+02
0.220576773464245E+02
0.220814084446423E+02
0.221524419757606E+02
0.222703039813428E+02
0.224342218944449E+02
0.226431492057701E+02
0.228957974266439E+02
0.231906731815816E+02
0.235261181287715E+02
0.239003495055415E+02
0.243114993786530E+02
0.247576510795197E+02
0.252368717535687E+02
0.257472403922419E+02
0.262868711033877E+02
0.268539316870485E+02
0.274466578109130E+02
0.280633632269622E+02
0.287024465493783E+02
0.293623951382789E+02
0.300417866192650E+02
0.307392885286441E+02
0.314536565195542E+02
0.321837315034644E+02
0.329284360405493E+02
0.336867702350271E+02
0.344578073398842E+02
0.352406892304555E+02
0.360346218682776E+02
0.368385242732751E+02
0.376432853571091E+02
0.383722810913449E+02
0.387313328479948E+02
0.378197322783957E+02
0.370795136012816E+02
0.362618759988147E+02
0.354445171323642E+02
0.346366590989137E+02
0.338393805433148E+02
0.330534709175562E+02
0.322797871701940E+02
0.315192591144935E+02
0.307728949205957E+02
0.300417866192650E+02
0.293271154622018E+02
0.286301569318078E+02
0.279522851310846E+02
0.272949762122316E+02
0.266598104219639E+02
0.260484722559870E+02
0.254627481305117E+02
0.249045209046881E+02
0.243757605379986E+02
0.238785101588892E+02
0.234148668768146E+02
0.229869568127156E+02
0.225969040739635E+02
0.222467937724618E+02
0.219386296772550E+02
0.216742876813352E+02
0.214554668938028E+02
0.212836407620027E+02
0.211600110818313E+02
0.210854679627379E+02
0.210605586928801E+02
0.210854679627379E+02
0.211600110818313E+02
0.212836407620027E+02
0.214554668938028E+02
0.216742876813352E+02
0.219386296772550E+02
0.222467937724618E+02
0.225969040739635E+02
0.229869568127156E+02
0.234148668768146E+02
0.238785101588892E+02
0.243757605379986E+02
0.249045209046881E+02
0.254627481305117E+02
0.260484722559870E+02
0.266598104219639E+02
0.272949762122316E+02
0.279522851310846E+02
0.286301569318078E+02
0.293271154622018E+02
0.300417866192650E+02
0.307728949205957E+02
0.315192591144935E+02
0.322797871701940E+02
0.330534709175562E+02
0.338393805433148E+02
0.346366590989137E+02
0.354445171323642E+02
0.362618759988147E+02
0.370795136012816E+02
0.378197322783957E+02
0.381841761488669E+02
0.372863336464017E+02
0.365349440133652E+02
0.357044661938398E+02
0.348736592211571E+02
0.340518512222931E+02
0.332401140591031E+02
0.324392278069735E+02
0.316500430815008E+02
0.308734872728435E+02
0.301105710641273E+02
0.293623951382789E+02
0.286301569318078E+02
0.279151572357771E+02
0.272188063718630E+02
0.265426295839695E+02
0.258882711835370E+02
0.252574968717317E+02
0.246521935395711E+02
0.240743657276700E+02
0.235261278264548E+02
0.230096910380410E+02
0.225273441321743E+02
0.220814271457733E+02
0.216742974349748E+02
0.213082879199514E+02
0.209856579782811E+02
0.207085382235767E+02
0.204788712908132E+02
0.202983516285835E+02
0.201683680207698E+02
0.200899529586594E+02
0.200637429150271E+02
0.200899529586594E+02
0.201683680207698E+02
0.202983516285835E+02
0.204788712908132E+02
0.207085382235767E+02
0.209856579782811E+02
0.213082879199514E+02
0.216742974349748E+02
0.220814271457733E+02
0.225273441321743E+02
0.230096910380410E+02
0.235261278264548E+02
0.240743657276700E+02
0.246521935395711E+02
0.252574968717317E+02
0.258882711835370E+02
0.265426295839695E+02
0.272188063718630E+02
0.279151572357771E+02
0.286301569318078E+02
0.293623951382789E+02
0.301105710641273E+02
0.308734872728435E+02
0.316500430815008E+02
0.324392278069735E+02
0.332401140591031E+02
0.340518512222931E+02
0.348736592211571E+02
0.357044661938398E+02
0.365349440133652E+02
0.372863336464017E+02
0.376561385049463E+02
0.367729415382459E+02
0.360104725879952E+02
0.351672364413983E+02
0.343230372962109E+02
0.334873036751594E+02
0.326610958681416E+02
0.318451793535010E+02
0.310403927001585E+02
0.302476546807071E+02
0.294679718542310E+02
0.287024465493783E+02
0.279522851310846E+02
0.272188063718630E+02
0.265034496677023E+02
0.258077827365945E+02
0.251335083127020E+02
0.244824692013069E+02
0.238566508925188E+02
0.232581807542270E+02
0.226893226537020E+02
0.221524657194671E+02
0.216501058892594E+02
0.211848189463666E+02
0.207592239832871E+02
0.203759367047825E+02
0.200375127305300E+02
0.197463820797512E+02
0.195047772524089E+02
0.193146586205211E+02
0.191776419885761E+02
0.190949339083172E+02
0.190672803919131E+02
0.190949339083172E+02
0.191776419885761E+02
0.193146586205211E+02
0.195047772524089E+02
0.197463820797512E+02
0.200375127305300E+02
0.203759367047825E+02
0.207592239832871E+02
0.211848189463666E+02
0.216501058892594E+02
0.221524657194671E+02
0.226893226537020E+02
0.232581807542270E+02
0.238566508925188E+02
0.244824692013069E+02
0.251335083127020E+02
0.258077827365945E+02
0.265034496677023E+02
0.272188063718630E+02
0.279522851310846E+02
0.287024465493783E+02
0.294679718542310E+02
0.302476546807071E+02
0.310403927001585E+02
0.318451793535010E+02
0.326610958681416E+02
0.334873036751594E+02
0.343230372962109E+02
0.351672364413983E+02
0.360104725879952E+02
0.367729415382459E+02
0.371480572595718E+02
0.362804290210617E+02
0.355070156891359E+02
0.346511532507803E+02
0.337936706832380E+02
0.329440906487708E+02
0.321034567996941E+02
0.312725144284658E+02
0.304520838400082E+02
0.296430683280562E+02
0.288464628299334E+02
0.280633632269622E+02
0.272949762122316E+02
0.265426295839695E+02
0.258077827365945E+02
0.250920370076276E+02
0.243971453922932E+02
0.237250209555109E+02
0.230777430529332E+02
0.224575602244710E+02
0.218668883605856E+02
0.213083024925910E+02
0.207845203705138E+02
0.202983759337712E+02
0.198527809382854E+02
0.194506734754836E+02
0.190949529892353E+02
0.187884027059421E+02
0.185336020922576E+02
0.183328338687630E+02
0.181879919202350E+02
0.181004977327390E+02
0.180712333251595E+02
0.181004977327390E+02
0.181879919202350E+02
0.183328338687630E+02
0.185336020922576E+02
0.187884027059421E+02
0.190949529892353E+02
0.194506734754836E+02
0.198527809382854E+02
0.202983759337712E+02
0.207845203705138E+02
0.213083024925910E+02
0.218668883605856E+02
0.224575602244710E+02
0.230777430529332E+02
0.237250209555109E+02
0.243971453922932E+02
0.250920370076276E+02
0.258077827365945E+02
0.265426295839695E+02
0.272949762122316E+02
0.280633632269622E+02
0.288464628299334E+02
0.296430683280562E+02
0.304520838400082E+02
0.312725144284658E+02
0.321034567996941E+02
0.329440906487708E+02
0.337936706832380E+02
0.346511532507803E+02
0.355070156891359E+02
0.362804290210617E+02
0.366607848273769E+02
0.358096819901601E+02
0.350255060812281E+02
0.341572040502835E+02
0.332866048901554E+02
0.324233185801228E+02
0.315683668823068E+02
0.307224690379538E+02
0.298864204555776E+02
0.290611015007641E+02
0.282474871910490E+02
0.274466578109130E+02
0.266598104219639E+02
0.258882711835370E+02
0.251335083127020E+02
0.243971453922932E+02
0.236809745725978E+02
0.229869689984414E+02
0.223172935224523E+02
0.216743124364340E+02
0.210605925755512E+02
0.204788997511569E+02
0.199321860998054E+02
0.194235656841490E+02
0.189562756694828E+02
0.185336207827701E+02
0.181588997016729E+02
0.178353136407682E+02
0.175658597078273E+02
0.173532144060316E+02
0.171996155200754E+02
0.171067528820448E+02
0.170756794210644E+02
0.171067528820448E+02
0.171996155200754E+02
0.173532144060316E+02
0.175658597078273E+02
0.178353136407682E+02
0.181588997016729E+02
0.185336207827701E+02
0.189562756694828E+02
0.194235656841490E+02
0.199321860998054E+02
0.204788997511569E+02
0.210605925755512E+02
0.216743124364340E+02
0.223172935224523E+02
0.229869689984414E+02
0.236809745725978E+02
0.243971453922932E+02
0.251335083127020E+02
0.258882711835370E+02
0.266598104219639E+02
0.274466578109130E+02
0.282474871910490E+02
0.290611015007641E+02
0.298864204555776E+02
0.307224690379538E+02
0.315683668823068E+02
0.324233185801228E+02
0.332866048901554E+02
0.341572040502835E+02
0.350255060812281E+02
0.358096819901601E+02
0.361951848438856E+02
0.353615945904318E+02
0.345668881880374E+02
0.336863922984671E+02
0.328029066227531E+02
0.319261211478735E+02
0.310570304230224E+02
0.301963216218466E+02
0.293447583382650E+02
0.285031901000393E+02
0.276725630240473E+02
0.268539316870485E+02
0.260484722559870E+02
0.252574968717317E+02
0.244824692013069E+02
0.237250209555109E+02
0.229869689984414E+02
0.222703324381322E+02
0.215773487683942E+02
0.209104877193166E+02
0.202724609652261E+02
0.196662252504895E+02
0.190949758740789E+02
0.185621269209398E+02
0.180712743039335E+02
0.176261378161494E+02
0.172304792716147E+02
0.168879957032080E+02
0.166021896331180E+02
0.163762224924926E+02
0.162127617739519E+02
0.161138364254935E+02
0.160807170394051E+02
0.161138364254935E+02
0.162127617739519E+02
0.163762224924926E+02
0.166021896331180E+02
0.168879957032080E+02
0.172304792716147E+02
0.176261378161494E+02
0.180712743039335E+02
0.185621269209398E+02
0.190949758740789E+02
0.196662252504895E+02
0.202724609652261E+02
0.209104877193166E+02
0.215773487683942E+02
0.222703324381322E+02
0.229869689984414E+02
0.237250209555109E+02
0.244824692013069E+02
0.252574968717317E+02
0.260484722559870E+02
0.268539316870485E+02
0.276725630240473E+02
0.285031901000393E+02
0.293447583382650E+02
0.301963216218466E+02
0.310570304230224E+02
0.319261211478735E+02
0.328029066227531E+02
0.336863922984671E+02
0.345668881880374E+02
0.353615945904318E+02
0.357521276739393E+02
0.349370639371049E+02
0.341321125481610E+02
0.332397316646691E+02
0.323436577251073E+02
0.314536530320694E+02
0.305706796737678E+02
0.296953867498563E+02
0.288284990100125E+02
0.279708269576655E+02
0.271232783310233E+02
0.262868711033877E+02
0.254627481305117E+02
0.246521935395711E+02
0.238566508925188E+02
0.230777430529332E+02
0.223172935224523E+02
0.215773487683942E+02
0.208602007121026E+02
0.201684080604335E+02
0.195048145177556E+02
0.188725611062661E+02
0.182750888772497E+02
0.177161273077510E+02
0.171996628366499E+02
0.167298816202444E+02
0.163110811305293E+02
0.159475472008972E+02
0.156433969730937E+02
0.154023939736909E+02
0.152277486052171E+02
0.151219241338170E+02
0.150864725385950E+02
0.151219241338170E+02
0.152277486052171E+02
0.154023939736909E+02
0.156433969730937E+02
0.159475472008972E+02
0.163110811305293E+02
0.167298816202444E+02
0.171996628366499E+02
0.177161273077510E+02
0.182750888772497E+02
0.188725611062661E+02
0.195048145177556E+02
0.201684080604335E+02
0.208602007121026E+02
0.215773487683942E+02
0.223172935224523E+02
0.230777430529332E+02
0.238566508925188E+02
0.246521935395711E+02
0.254627481305117E+02
0.262868711033877E+02
0.271232783310233E+02
0.279708269576655E+02
0.288284990100125E+02
0.296953867498563E+02
0.305706796737678E+02
0.314536530320694E+02
0.323436577251073E+02
0.332397316646691E+02
0.341321125481610E+02
0.349370639371049E+02
0.353324852662199E+02
0.345369841356226E+02
0.337221294556168E+02
0.328182392505628E+02
0.319099479939199E+02
0.310070823568441E+02
0.301105669648411E+02
0.292210070439151E+02
0.283390815796703E+02
0.274655538322016E+02
0.266012834489566E+02
0.257472403922419E+02
0.249045209046881E+02
0.240743657276700E+02
0.232581807542270E+02
0.224575602244710E+02
0.216743124364340E+02
0.209104877193166E+02
0.201684080604335E+02
0.194506972441581E+02
0.187603095984002E+02
0.181005544055277E+02
0.174751117036249E+02
0.168880336343117E+02
0.163437238700938E+02
0.158468863686319E+02
0.154024344110567E+02
0.150153524942320E+02
0.146905081323026E+02
0.144324185659858E+02
0.142449883013456E+02
0.141312451344920E+02
0.140931109931932E+02
0.141312451344920E+02
0.142449883013456E+02
0.144324185659858E+02
0.146905081323026E+02
0.150153524942320E+02
0.154024344110567E+02
0.158468863686319E+02
0.163437238700938E+02
0.168880336343117E+02
0.174751117036249E+02
0.181005544055277E+02
0.187603095984002E+02
0.194506972441581E+02
0.201684080604335E+02
0.209104877193166E+02
0.216743124364340E+02
0.224575602244710E+02
0.232581807542270E+02
0.240743657276700E+02
0.249045209046881E+02
0.257472403922419E+02
0.266012834489566E+02
0.274655538322016E+02
0.283390815796703E+02
0.292210070439151E+02