<?xml version="1.0"?>
<VTKFile type="RectilinearGrid" version="0.1" byte_order="LittleEndian">
<RectilinearGrid WholeExtent="0   63    0   63    0    3">
<Piece Extent="15   31   31   47    0    3">
<Coordinates>
<DataArray Name="x" type="Float32" format="ascii">
0.150000000000000E+01
0.160000000000000E+01
0.170000000000000E+01
0.180000000000000E+01
0.190000000000000E+01
0.200000000000000E+01
0.210000000000000E+01
0.220000000000000E+01
0.230000000000000E+01
0.240000000000000E+01
0.250000000000000E+01
0.260000000000000E+01
0.270000000000000E+01
0.280000000000000E+01
0.290000000000000E+01
0.300000000000000E+01
0.310000000000000E+01
</DataArray>
<DataArray Name="y" type="Float32" format="ascii">
0.310000000000000E+01
0.320000000000000E+01
0.330000000000000E+01
0.340000000000000E+01
0.350000000000000E+01
0.360000000000000E+01
0.370000000000000E+01
0.380000000000000E+01
0.390000000000000E+01
0.400000000000000E+01
0.410000000000000E+01
0.420000000000000E+01
0.430000000000000E+01
0.440000000000000E+01
0.450000000000000E+01
0.460000000000000E+01
0.470000000000000E+01
</DataArray>
<DataArray Name="z" type="Float32" format="ascii">
0.000000000000000E+00
0.100000000000000E+00
0.200000000000000E+00
0.300000000000000E+00
</DataArray>
</Coordinates>
<PointData Scalars="c">
<DataArray type="Float32" Name="c" format="ascii">
0.178182636494466E+02
0.168786236518904E+02
0.159481165120635E+02
0.150296013147881E+02
0.141265886324818E+02
0.132435078807887E+02
0.123859504121976E+02
0.115608685301269E+02
0.107766951370928E+02
0.100433382582911E+02
0.937200376934384E+01
0.877481199184880E+01
0.826420057232703E+01
0.785214438207281E+01
0.754926570392588E+01
0.736394398941090E+01
0.730155277098419E+01
0.178477853785140E+02
0.169098232332075E+02
0.159811542286608E+02
0.150646471461853E+02
0.141638175699480E+02
0.132830924320189E+02
0.124280498728265E+02
0.116056149386319E+02
0.108241763737966E+02
0.100935794570465E+02
0.942494896952627E+01
0.883030858983175E+01
0.832198942444133E+01
0.791185818131165E+01
0.761043741496940E+01
0.742602575003141E+01
0.736394398970804E+01
0.179360505694352E+02
0.170030712404450E+02
0.160798562323771E+02
0.151693020201427E+02
0.142749379845665E+02
0.134011827405247E+02
0.125535745665758E+02
0.117389574508670E+02
0.109655895997262E+02
0.102431314206927E+02
0.958246927568665E+01
0.899534313249666E+01
0.849377166681973E+01
0.808930464345960E+01
0.779217255601886E+01
0.761043741589624E+01
0.754926570514987E+01
0.180821736973663E+02
0.171573338688690E+02
0.162430124969031E+02
0.153421477756432E+02
0.144582881632647E+02
0.135958357027893E+02
0.127602615912687E+02
0.119582770896574E+02
0.111979291275002E+02
0.104885808571958E+02
0.984073691329096E+01
0.926568436429818E+01
0.877494420618368E+01
0.837956212718651E+01
0.808930464642990E+01
0.791185818521085E+01
0.785214438626988E+01
0.182847255812083E+02
0.173709473940077E+02
0.164686815523088E+02
0.155809160515397E+02
0.147112185264073E+02
0.138639627108804E+02
0.130445248786311E+02
0.122594354115928E+02
0.115164580877094E+02
0.108245615038624E+02
0.101937468057504E+02
0.963470633671194E+01
0.915830966033904E+01
0.877494421539956E+01
0.849377167901809E+01
0.832198943757880E+01
0.826420058576582E+01
0.185417983692840E+02
0.176417002375666E+02
0.167542940857474E+02
0.158826187440780E+02
0.150302551031370E+02
0.142015330005015E+02
0.134017056656305E+02
0.126370792724405E+02
0.119150739272094E+02
0.112441852730031E+02
0.106338159039647E+02
0.100939552828642E+02
0.963470636425365E+01
0.926568440110851E+01
0.899534317234292E+01
0.883030863065300E+01
0.877481203298342E+01
0.188510872938153E+02
0.179669354050269E+02
0.170967812495944E+02
0.162437083360949E+02
0.154112989502991E+02
0.146038199696511E+02
0.138263739162285E+02
0.130850054044372E+02
0.123867433055363E+02
0.117395528530353E+02
0.111521721480283E+02
0.106338159832001E+02
0.101937469127237E+02
0.984073702975071E+01
0.958246939535787E+01
0.942494909028276E+01
0.937200389045063E+01
0.192099818083462E+02
0.183436634586560E+02
0.174927146330265E+02
0.166602509171327E+02
0.158498390958679E+02
0.150656615574666E+02
0.143126439379390E+02
0.135965388357628E+02
0.129239499433658E+02
0.123022758380591E+02
0.117395530724343E+02
0.112441855722960E+02
0.108245618316675E+02
0.104885811951701E+02
0.102431317623917E+02
0.100935798001455E+02
0.100433386018457E+02
0.196156587368683E+02
0.187686763794492E+02
0.179384453204506E+02
0.171280955967169E+02
0.163411580635441E+02
0.155817080572889E+02
0.148544707792115E+02
0.141648838482437E+02
0.135191052297955E+02
0.129239505279690E+02
0.123867441115774E+02
0.119150748156433E+02
0.115164590069859E+02
0.111979300588616E+02
0.109655905362164E+02
0.108241773125395E+02
0.107766960765764E+02
0.200651709568075E+02
0.192386540695364E+02
0.184302315721512E+02
0.176430271085395E+02
0.168805134478807E+02
0.161466368622181E+02
0.154459022709433E+02
0.147834170620785E+02
0.141648853469647E+02
0.135965409249792E+02
0.130850077225558E+02
0.126370816801964E+02
0.122594378564849E+02
0.119582795516750E+02
0.117389599216701E+02
0.116056174139001E+02
0.115608710068753E+02
0.205555265720042E+02
0.197502573619377E+02
0.189643477120858E+02
0.182008927061956E+02
0.174632849534515E+02
0.167553216780307E+02
0.160812722021562E+02
0.154459059669589E+02
0.148544759899537E+02
0.143126497600300E+02
0.138263799881000E+02
0.134017118459917E+02
0.130445311120725E+02
0.127602678544712E+02
0.125535808476922E+02
0.124280561639215E+02
0.123859567066157E+02
0.210837550927473E+02
0.203002036620434E+02
0.195371699963180E+02
0.187976988604594E+02
0.180850822870769E+02
0.174029516744910E+02
0.167553304443824E+02
0.161466493656360E+02
0.155817221302677E+02
0.150656762981243E+02
0.146038350124739E+02
0.142015481978208E+02
0.138639779997629E+02
0.135958510517956E+02
0.134011981293401E+02
0.132831078440287E+02
0.132435233005388E+02
0.216469584145058E+02
0.208853232026482E+02
0.201452378481154E+02
0.194296768416410E+02
0.187418140645314E+02
0.180851022807804E+02
0.174633138132039E+02
0.168805461809559E+02
0.163411925093163E+02
0.158498743456493E+02
0.154113346254207E+02
0.150302910396829E+02
0.147112546435345E+02
0.144583244106144E+02
0.142749743222359E+02
0.141638539612906E+02
0.141266250417520E+02
0.222423450096184E+02
0.215025949123063E+02
0.207852903505533E+02
0.200933183635142E+02
0.194297206818668E+02
0.187977629241229E+02
0.182009659567245E+02
0.176431045762613E+02
0.171281751113882E+02
0.166603315447239E+02
0.162437896647014E+02
0.158827005722002E+02
0.155809982580397E+02
0.153422302679911E+02
0.151693847149111E+02
0.150647299622610E+02
0.150296841713977E+02
0.228672454216852E+02
0.221491607629775E+02
0.214542779602773E+02
0.207853827506525E+02
0.201453745914007E+02
0.195373276800768E+02
0.189645153657691E+02
0.184304042180179E+02
0.179386207431959E+02
0.174928918344402E+02
0.170969597428484E+02
0.167544735876111E+02
0.164688618550846E+02
0.162431934178506E+02
0.160800375950916E+02
0.159813358570817E+02
0.159482982292825E+02
0.235191056815028E+02
0.228223160042369E+02
0.221493479201550E+02
0.215028755167186E+02
0.208856496734184E+02
0.203005527665003E+02
0.197506181398952E+02
0.192390214708732E+02
0.187690480724637E+02
0.183440383035651E+02
0.179673127573150E+02
0.176420796447356E+02
0.173713284700978E+02
0.171577162457140E+02
0.170034545506422E+02
0.169102071056832E+02
0.168790077122921E+02
0.241954526110293E+02
0.235194699225198E+02
0.228677988942541E+02
0.222429950072282E+02
0.216476577591735E+02
0.210844806276276E+02
0.205562672367083E+02
0.200659215045760E+02
0.196164165832434E+02
0.192107455246295E+02
0.188518559204540E+02
0.185425711181522E+02
0.182855017138104E+02
0.180829524791423E+02
0.179368312556658E+02
0.178485672128901E+02
0.178190458675740E+02
0.178182636494465E+02
0.168786236518903E+02
0.159481165120634E+02
0.150296013147880E+02
0.141265886324817E+02
0.132435078807885E+02
0.123859504121975E+02
0.115608685301268E+02
0.107766951370926E+02
0.100433382582910E+02
0.937200376934366E+01
0.877481199184861E+01
0.826420057232683E+01
0.785214438207259E+01
0.754926570392566E+01
0.736394398941068E+01
0.730155277098396E+01
0.178477853785139E+02
0.169098232332074E+02
0.159811542286607E+02
0.150646471461852E+02
0.141638175699479E+02
0.132830924320188E+02
0.124280498728264E+02
0.116056149386318E+02
0.108241763737964E+02
0.100935794570463E+02
0.942494896952609E+01
0.883030858983156E+01
0.832198942444113E+01
0.791185818131144E+01
0.761043741496919E+01
0.742602575003119E+01
0.736394398970781E+01
0.179360505694351E+02
0.170030712404449E+02
0.160798562323770E+02
0.151693020201426E+02
0.142749379845663E+02
0.134011827405246E+02
0.125535745665757E+02
0.117389574508669E+02
0.109655895997261E+02
0.102431314206925E+02
0.958246927568647E+01
0.899534313249647E+01
0.849377166681953E+01
0.808930464345939E+01
0.779217255601864E+01
0.761043741589602E+01
0.754926570514965E+01
0.180821736973662E+02
0.171573338688689E+02
0.162430124969031E+02
0.153421477756431E+02
0.144582881632646E+02
0.135958357027892E+02
0.127602615912686E+02
0.119582770896573E+02
0.111979291275000E+02
0.104885808571956E+02
0.984073691329078E+01
0.926568436429799E+01
0.877494420618348E+01
0.837956212718631E+01
0.808930464642970E+01
0.791185818521064E+01
0.785214438626967E+01
0.182847255812082E+02
0.173709473940076E+02
0.164686815523088E+02
0.155809160515396E+02
0.147112185264072E+02
0.138639627108803E+02
0.130445248786310E+02
0.122594354115927E+02
0.115164580877093E+02
0.108245615038622E+02
0.101937468057503E+02
0.963470633671177E+01
0.915830966033886E+01
0.877494421539937E+01
0.849377167901789E+01
0.832198943757859E+01
0.826420058576562E+01
0.185417983692840E+02
0.176417002375666E+02
0.167542940857473E+02
0.158826187440779E+02
0.150302551031369E+02
0.142015330005014E+02
0.134017056656304E+02
0.126370792724404E+02
0.119150739272092E+02
0.112441852730029E+02
0.106338159039646E+02
0.100939552828640E+02
0.963470636425347E+01
0.926568440110832E+01
0.899534317234273E+01
0.883030863065281E+01
0.877481203298323E+01
0.188510872938153E+02
0.179669354050268E+02
0.170967812495943E+02
0.162437083360948E+02
0.154112989502990E+02
0.146038199696510E+02
0.138263739162283E+02
0.130850054044371E+02
0.123867433055361E+02
0.117395528530352E+02
0.111521721480281E+02
0.106338159831999E+02
0.101937469127236E+02
0.984073702975054E+01
0.958246939535769E+01
0.942494909028258E+01
0.937200389045045E+01
0.192099818083461E+02
0.183436634586560E+02
0.174927146330264E+02
0.166602509171326E+02
0.158498390958678E+02
0.150656615574665E+02
0.143126439379389E+02
0.135965388357627E+02
0.129239499433657E+02
0.123022758380590E+02
0.117395530724342E+02
0.112441855722959E+02
0.108245618316673E+02
0.104885811951699E+02
0.102431317623915E+02
0.100935798001453E+02
0.100433386018455E+02
0.196156587368682E+02
0.187686763794491E+02
0.179384453204505E+02
0.171280955967168E+02
0.163411580635440E+02
0.155817080572888E+02
0.148544707792114E+02
0.141648838482436E+02
0.135191052297954E+02
0.129239505279689E+02
0.123867441115773E+02
0.119150748156432E+02
0.115164590069858E+02
0.111979300588614E+02
0.109655905362162E+02
0.108241773125393E+02
0.107766960765762E+02
0.200651709568074E+02
0.192386540695363E+02
0.184302315721512E+02
0.176430271085394E+02
0.168805134478806E+02
0.161466368622180E+02
0.154459022709433E+02
0.147834170620784E+02
0.141648853469646E+02
0.135965409249791E+02
0.130850077225557E+02
0.126370816801963E+02
0.122594378564847E+02
0.119582795516749E+02
0.117389599216700E+02
0.116056174138999E+02
0.115608710068751E+02
0.205555265720041E+02
0.197502573619376E+02
0.189643477120858E+02
0.182008927061955E+02
0.174632849534514E+02
0.167553216780306E+02
0.160812722021561E+02
0.154459059669588E+02
0.148544759899536E+02
0.143126497600299E+02
0.138263799880999E+02
0.134017118459916E+02
0.130445311120724E+02
0.127602678544711E+02
0.125535808476920E+02
0.124280561639213E+02
0.123859567066156E+02
0.210837550927472E+02
0.203002036620433E+02
0.195371699963180E+02
0.187976988604593E+02
0.180850822870768E+02
0.174029516744909E+02
0.167553304443823E+02
0.161466493656359E+02
0.155817221302676E+02
0.150656762981242E+02
0.146038350124738E+02
0.142015481978207E+02
0.138639779997628E+02
0.135958510517955E+02
0.134011981293399E+02
0.132831078440286E+02
0.132435233005387E+02
0.216469584145058E+02
0.208853232026482E+02
0.201452378481153E+02
0.194296768416410E+02
0.187418140645313E+02
0.180851022807803E+02
0.174633138132039E+02
0.168805461809558E+02
0.163411925093162E+02
0.158498743456492E+02
0.154113346254206E+02
0.150302910396828E+02
0.147112546435344E+02
0.144583244106143E+02
0.142749743222358E+02
0.141638539612905E+02
0.141266250417519E+02
0.222423450096184E+02
0.215025949123062E+02
0.207852903505532E+02
0.200933183635141E+02
0.194297206818668E+02
0.187977629241228E+02
0.182009659567245E+02
0.176431045762612E+02
0.171281751113881E+02
0.166603315447238E+02
0.162437896647013E+02
0.158827005722001E+02
0.155809982580396E+02
0.153422302679910E+02
0.151693847149110E+02
0.150647299622609E+02
0.150296841713976E+02
0.228672454216852E+02
0.221491607629774E+02
0.214542779602772E+02
0.207853827506525E+02
0.201453745914006E+02
0.195373276800767E+02
0.189645153657690E+02
0.184304042180178E+02
0.179386207431958E+02
0.174928918344401E+02
0.170969597428484E+02
0.167544735876110E+02
0.164688618550845E+02
0.162431934178505E+02
0.160800375950915E+02
0.159813358570816E+02
0.159482982292824E+02
0.235191056815027E+02
0.228223160042368E+02
0.221493479201549E+02
0.215028755167186E+02
0.208856496734183E+02
0.203005527665002E+02
0.197506181398951E+02
0.192390214708732E+02
0.187690480724636E+02
0.183440383035650E+02
0.179673127573149E+02
0.176420796447356E+02
0.173713284700978E+02
0.171577162457139E+02
0.170034545506421E+02
0.169102071056831E+02
0.168790077122920E+02
0.241954526110292E+02
0.235194699225198E+02
0.228677988942540E+02
0.222429950072281E+02
0.216476577591735E+02
0.210844806276275E+02
0.205562672367082E+02
0.200659215045760E+02
0.196164165832433E+02
0.192107455246294E+02
0.188518559204539E+02
0.185425711181522E+02
0.182855017138104E+02
0.180829524791423E+02
0.179368312556657E+02
0.178485672128900E+02
0.178190458675739E+02
0.178182636494466E+02
0.168786236518904E+02
0.159481165120635E+02
0.150296013147881E+02
0.141265886324818E+02
0.132435078807887E+02
0.123859504121976E+02
0.115608685301269E+02
0.107766951370928E+02
0.100433382582911E+02
0.937200376934384E+01
0.877481199184880E+01
0.826420057232703E+01
0.785214438207281E+01
0.754926570392588E+01
0.736394398941090E+01
0.730155277098419E+01
0.178477853785140E+02
0.169098232332075E+02
0.159811542286608E+02
0.150646471461853E+02
0.141638175699480E+02
0.132830924320189E+02
0.124280498728265E+02
0.116056149386319E+02
0.108241763737966E+02
0.100935794570465E+02
0.942494896952627E+01
0.883030858983175E+01
0.832198942444133E+01
0.791185818131165E+01
0.761043741496940E+01
0.742602575003141E+01
0.736394398970804E+01
0.179360505694352E+02
0.170030712404450E+02
0.160798562323771E+02
0.151693020201427E+02
0.142749379845665E+02
0.134011827405247E+02
0.125535745665758E+02
0.117389574508670E+02
0.109655895997262E+02
0.102431314206927E+02
0.958246927568665E+01
0.899534313249666E+01
0.849377166681973E+01
0.808930464345960E+01
0.779217255601886E+01
0.761043741589624E+01
0.754926570514987E+01
0.180821736973663E+02
0.171573338688690E+02
0.162430124969031E+02
0.153421477756432E+02
0.144582881632647E+02
0.135958357027893E+02
0.127602615912687E+02
0.119582770896574E+02
0.111979291275002E+02
0.104885808571958E+02
0.984073691329096E+01
0.926568436429818E+01
0.877494420618368E+01
0.837956212718651E+01
0.808930464642990E+01
0.791185818521085E+01
0.785214438626988E+01
0.182847255812083E+02
0.173709473940077E+02
0.164686815523088E+02
0.155809160515397E+02
0.147112185264073E+02
0.138639627108804E+02
0.130445248786311E+02
0.122594354115928E+02
0.115164580877094E+02
0.108245615038624E+02
0.101937468057504E+02
0.963470633671194E+01
0.915830966033904E+01
0.877494421539956E+01
0.849377167901809E+01
0.832198943757880E+01
0.826420058576582E+01
0.185417983692840E+02
0.176417002375666E+02
0.167542940857474E+02
0.158826187440780E+02
0.150302551031370E+02
0.142015330005015E+02
0.134017056656305E+02
0.126370792724405E+02
0.119150739272094E+02
0.112441852730031E+02
0.106338159039647E+02
0.100939552828642E+02
0.963470636425365E+01
0.926568440110851E+01
0.899534317234292E+01
0.883030863065300E+01
0.877481203298342E+01
0.188510872938153E+02
0.179669354050269E+02
0.170967812495944E+02
0.162437083360949E+02
0.154112989502991E+02
0.146038199696511E+02
0.138263739162285E+02
0.130850054044372E+02
0.123867433055363E+02
0.117395528530353E+02
0.111521721480283E+02
0.106338159832001E+02
0.101937469127237E+02
0.984073702975071E+01
0.958246939535787E+01
0.942494909028276E+01
0.937200389045063E+01
0.192099818083462E+02
0.183436634586560E+02
0.174927146330265E+02
0.166602509171327E+02
0.158498390958679E+02
0.150656615574666E+02
0.143126439379390E+02
0.135965388357628E+02
0.129239499433658E+02
0.123022758380591E+02
0.117395530724343E+02
0.112441855722960E+02
0.108245618316675E+02
0.104885811951701E+02
0.102431317623917E+02
0.100935798001455E+02
0.100433386018457E+02
0.196156587368683E+02
0.187686763794492E+02
0.179384453204506E+02
0.171280955967169E+02
0.163411580635441E+02
0.155817080572889E+02
0.148544707792115E+02
0.141648838482437E+02
0.135191052297955E+02
0.129239505279690E+02
0.123867441115774E+02
0.119150748156433E+02
0.115164590069859E+02
0.111979300588616E+02
0.109655905362164E+02
0.108241773125395E+02
0.107766960765764E+02
0.200651709568075E+02
0.192386540695364E+02
0.184302315721512E+02
0.176430271085395E+02
0.168805134478807E+02
0.161466368622181E+02
0.154459022709433E+02
0.147834170620785E+02
0.141648853469647E+02
0.135965409249792E+02
0.130850077225558E+02
0.126370816801964E+02
0.122594378564849E+02
0.119582795516750E+02
0.117389599216701E+02
0.116056174139001E+02
0.115608710068753E+02
0.205555265720042E+02
0.197502573619377E+02
0.189643477120858E+02
0.182008927061956E+02
0.174632849534515E+02
0.167553216780307E+02
0.160812722021562E+02
0.154459059669589E+02
0.148544759899537E+02
0.143126497600300E+02
0.138263799881000E+02
0.134017118459917E+02
0.130445311120725E+02
0.127602678544712E+02
0.125535808476922E+02
0.124280561639215E+02
0.123859567066157E+02
0.210837550927473E+02
0.203002036620434E+02
0.195371699963180E+02
0.187976988604594E+02
0.180850822870769E+02
0.174029516744910E+02
0.167553304443824E+02
0.161466493656360E+02
0.155817221302677E+02
0.150656762981243E+02
0.146038350124739E+02
0.142015481978208E+02
0.138639779997629E+02
0.135958510517956E+02
0.134011981293401E+02
0.132831078440287E+02
0.132435233005388E+02
0.216469584145058E+02
0.208853232026482E+02
0.201452378481154E+02
0.194296768416410E+02
0.187418140645314E+02
0.180851022807804E+02
0.174633138132039E+02
0.168805461809559E+02
0.163411925093163E+02
0.158498743456493E+02
0.154113346254207E+02
0.150302910396829E+02
0.147112546435345E+02
0.144583244106144E+02
0.142749743222359E+02
0.141638539612906E+02
0.141266250417520E+02
0.222423450096184E+02
0.215025949123063E+02
0.207852903505533E+02
0.200933183635142E+02
0.194297206818668E+02
0.187977629241229E+02
0.182009659567245E+02
0.176431045762613E+02
0.171281751113882E+02
0.166603315447239E+02
0.162437896647014E+02
0.158827005722002E+02
0.155809982580397E+02
0.153422302679911E+02
0.151693847149111E+02
0.150647299622610E+02
0.150296841713977E+02
0.228672454216852E+02
0.221491607629775E+02
0.214542779602773E+02
0.207853827506525E+02
0.201453745914007E+02
0.195373276800768E+02
0.189645153657691E+02
0.184304042180179E+02
0.179386207431959E+02
0.174928918344402E+02
0.170969597428484E+02
0.167544735876111E+02
0.164688618550846E+02
0.162431934178506E+02
0.160800375950916E+02
0.159813358570817E+02
0.159482982292825E+02
0.235191056815028E+02
0.228223160042369E+02
0.221493479201550E+02
0.215028755167186E+02
0.208856496734184E+02
0.203005527665003E+02
0.197506181398952E+02
0.192390214708732E+02
0.187690480724637E+02
0.183440383035651E+02
0.179673127573150E+02
0.176420796447356E+02
0.173713284700978E+02
0.171577162457140E+02
0.170034545506422E+02
0.169102071056832E+02
0.168790077122921E+02
0.241954526110293E+02
0.235194699225198E+02
0.228677988942541E+02
0.222429950072282E+02
0.216476577591735E+02
0.210844806276276E+02
0.205562672367083E+02
0.200659215045760E+02
0.196164165832434E+02
0.192107455246295E+02
0.188518559204540E+02
0.185425711181522E+02
0.182855017138104E+02
0.180829524791423E+02
0.179368312556658E+02
0.178485672128901E+02
0.178190458675740E+02
0.178182636494467E+02
0.168786236518905E+02
0.159481165120636E+02
0.150296013147882E+02
0.141265886324819E+02
0.132435078807888E+02
0.123859504121977E+02
0.115608685301270E+02
0.107766951370930E+02
0.100433382582913E+02
0.937200376934402E+01
0.877481199184899E+01
0.826420057232724E+01
0.785214438207302E+01
0.754926570392610E+01
0.736394398941113E+01
0.730155277098442E+01
0.178477853785140E+02
0.169098232332076E+02
0.159811542286609E+02
0.150646471461854E+02
0.141638175699481E+02
0.132830924320191E+02
0.124280498728266E+02
0.116056149386320E+02
0.108241763737967E+02
0.100935794570466E+02
0.942494896952645E+01
0.883030858983195E+01
0.832198942444153E+01
0.791185818131186E+01
0.761043741496962E+01
0.742602575003164E+01
0.736394398970826E+01
0.179360505694352E+02
0.170030712404451E+02
0.160798562323772E+02
0.151693020201428E+02
0.142749379845666E+02
0.134011827405248E+02
0.125535745665759E+02
0.117389574508672E+02
0.109655895997264E+02
0.102431314206928E+02
0.958246927568683E+01
0.899534313249685E+01
0.849377166681993E+01
0.808930464345980E+01
0.779217255601907E+01
0.761043741589646E+01
0.754926570515009E+01
0.180821736973664E+02
0.171573338688691E+02
0.162430124969032E+02
0.153421477756433E+02
0.144582881632648E+02
0.135958357027894E+02
0.127602615912688E+02
0.119582770896576E+02
0.111979291275003E+02
0.104885808571960E+02
0.984073691329113E+01
0.926568436429836E+01
0.877494420618387E+01
0.837956212718671E+01
0.808930464643011E+01
0.791185818521106E+01
0.785214438627010E+01
0.182847255812084E+02
0.173709473940078E+02
0.164686815523089E+02
0.155809160515398E+02
0.147112185264074E+02
0.138639627108805E+02
0.130445248786313E+02
0.122594354115929E+02
0.115164580877096E+02
0.108245615038625E+02
0.101937468057506E+02
0.963470633671212E+01
0.915830966033923E+01
0.877494421539975E+01
0.849377167901829E+01
0.832198943757900E+01
0.826420058576602E+01
0.185417983692841E+02
0.176417002375667E+02
0.167542940857475E+02
0.158826187440781E+02
0.150302551031371E+02
0.142015330005016E+02
0.134017056656307E+02
0.126370792724406E+02
0.119150739272095E+02
0.112441852730032E+02
0.106338159039649E+02
0.100939552828643E+02
0.963470636425382E+01
0.926568440110869E+01
0.899534317234311E+01
0.883030863065319E+01
0.877481203298361E+01
0.188510872938154E+02
0.179669354050270E+02
0.170967812495945E+02
0.162437083360950E+02
0.154112989502992E+02
0.146038199696512E+02
0.138263739162286E+02
0.130850054044374E+02
0.123867433055364E+02
0.117395528530354E+02
0.111521721480284E+02
0.106338159832002E+02
0.101937469127239E+02
0.984073702975088E+01
0.958246939535805E+01
0.942494909028294E+01
0.937200389045081E+01
0.192099818083462E+02
0.183436634586561E+02
0.174927146330266E+02
0.166602509171327E+02
0.158498390958680E+02
0.150656615574667E+02
0.143126439379391E+02
0.135965388357629E+02
0.129239499433659E+02
0.123022758380593E+02
0.117395530724345E+02
0.112441855722962E+02
0.108245618316677E+02
0.104885811951702E+02
0.102431317623918E+02
0.100935798001457E+02
0.100433386018459E+02
0.196156587368684E+02
0.187686763794492E+02
0.179384453204507E+02
0.171280955967169E+02
0.163411580635442E+02
0.155817080572890E+02
0.148544707792116E+02
0.141648838482439E+02
0.135191052297956E+02
0.129239505279692E+02
0.123867441115776E+02
0.119150748156434E+02
0.115164590069861E+02
0.111979300588617E+02
0.109655905362165E+02
0.108241773125396E+02
0.107766960765765E+02
0.200651709568075E+02
0.192386540695365E+02
0.184302315721513E+02
0.176430271085396E+02
0.168805134478808E+02
0.161466368622182E+02
0.154459022709434E+02
0.147834170620787E+02
0.141648853469648E+02
0.135965409249793E+02
0.130850077225559E+02
0.126370816801966E+02
0.122594378564850E+02
0.119582795516751E+02
0.117389599216703E+02
0.116056174139002E+02
0.115608710068754E+02
0.205555265720042E+02
0.197502573619378E+02
0.189643477120859E+02
0.182008927061956E+02
0.174632849534515E+02
0.167553216780308E+02
0.160812722021563E+02
0.154459059669590E+02
0.148544759899538E+02
0.143126497600301E+02
0.138263799881001E+02
0.134017118459918E+02
0.130445311120726E+02
0.127602678544713E+02
0.125535808476923E+02
0.124280561639216E+02
0.123859567066158E+02
0.210837550927473E+02
0.203002036620435E+02
0.195371699963181E+02
0.187976988604595E+02
0.180850822870770E+02
0.174029516744911E+02
0.167553304443824E+02
0.161466493656361E+02
0.155817221302678E+02
0.150656762981244E+02
0.146038350124740E+02
0.142015481978209E+02
0.138639779997630E+02
0.135958510517957E+02
0.134011981293402E+02
0.132831078440288E+02
0.132435233005389E+02
0.216469584145059E+02
0.208853232026483E+02
0.201452378481154E+02
0.194296768416411E+02
0.187418140645315E+02
0.180851022807804E+02
0.174633138132040E+02
0.168805461809560E+02
0.163411925093164E+02
0.158498743456494E+02
0.154113346254208E+02
0.150302910396830E+02
0.147112546435346E+02
0.144583244106145E+02
0.142749743222360E+02
0.141638539612907E+02
0.141266250417521E+02
0.222423450096185E+02
0.215025949123063E+02
0.207852903505533E+02
0.200933183635142E+02
0.194297206818669E+02
0.187977629241230E+02
0.182009659567246E+02
0.176431045762613E+02
0.171281751113883E+02
0.166603315447240E+02
0.162437896647015E+02
0.158827005722003E+02
0.155809982580398E+02
0.153422302679912E+02
0.151693847149112E+02
0.150647299622611E+02
0.150296841713978E+02
0.228672454216853E+02
0.221491607629775E+02
0.214542779602773E+02
0.207853827506526E+02
0.201453745914008E+02
0.195373276800769E+02
0.189645153657691E+02
0.184304042180179E+02
0.179386207431960E+02
0.174928918344403E+02
0.170969597428485E+02
0.167544735876112E+02
0.164688618550847E+02
0.162431934178507E+02
0.160800375950917E+02
0.159813358570818E+02
0.159482982292826E+02
0.235191056815029E+02
0.228223160042369E+02
0.221493479201550E+02
0.215028755167187E+02
0.208856496734184E+02
0.203005527665004E+02
0.197506181398953E+02
0.192390214708733E+02
0.187690480724638E+02
0.183440383035652E+02
0.179673127573151E+02
0.176420796447357E+02
0.173713284700979E+02
0.171577162457140E+02
0.170034545506423E+02
0.169102071056833E+02
0.168790077122922E+02
0.241954526110293E+02
0.235194699225199E+02
0.228677988942542E+02
0.222429950072282E+02
0.216476577591736E+02
0.210844806276277E+02
0.205562672367084E+02
0.200659215045761E+02
0.196164165832434E+02
0.192107455246295E+02
0.188518559204540E+02
0.185425711181523E+02
0.182855017138105E+02
0.180829524791424E+02
0.179368312556659E+02
0.178485672128902E+02
0.178190458675741E+02
</DataArray>
</PointData>
</Piece>
</RectilinearGrid>
</VTKFile>
