<?xml version="1.0"?>
<VTKFile type="RectilinearGrid" version="0.1" byte_order="LittleEndian">
<RectilinearGrid WholeExtent="0   63    0   63    0    3">
<Piece Extent="15   31    0   15    0    3">
<Coordinates>
<DataArray Name="x" type="Float32" format="ascii">
0.150000000000000E+01
0.160000000000000E+01
0.170000000000000E+01
0.180000000000000E+01
0.190000000000000E+01
0.200000000000000E+01
0.210000000000000E+01
0.220000000000000E+01
0.230000000000000E+01
0.240000000000000E+01
0.250000000000000E+01
0.260000000000000E+01
0.270000000000000E+01
0.280000000000000E+01
0.290000000000000E+01
0.300000000000000E+01
0.310000000000000E+01
</DataArray>
<DataArray Name="y" type="Float32" format="ascii">
0.000000000000000E+00
0.100000000000000E+00
0.200000000000000E+00
0.300000000000000E+00
0.400000000000000E+00
0.500000000000000E+00
0.600000000000000E+00
0.700000000000000E+00
0.800000000000000E+00
0.900000000000000E+00
0.100000000000000E+01
0.110000000000000E+01
0.120000000000000E+01
0.130000000000000E+01
0.140000000000000E+01
0.150000000000000E+01
</DataArray>
<DataArray Name="z" type="Float32" format="ascii">
0.000000000000000E+00
0.100000000000000E+00
0.200000000000000E+00
0.300000000000000E+00
</DataArray>
</Coordinates>
<PointData Scalars="c">
<DataArray type="Float32" Name="c" format="ascii">
0.298424844464930E+02
0.294980187870865E+02
0.291587754759307E+02
0.288280090224276E+02
0.285088190274454E+02
0.282041281112182E+02
0.279166639156261E+02
0.276489448907800E+02
0.274032694945562E+02
0.271817083783885E+02
0.269860991019594E+02
0.268180429111647E+02
0.266789031249294E+02
0.265698047038522E+02
0.264916346139839E+02
0.264450426492253E+02
0.264304424332103E+02
0.297749443719616E+02
0.294294321883075E+02
0.290891467193363E+02
0.287573529055261E+02
0.284371607381756E+02
0.281315030799098E+02
0.278431175564867E+02
0.275745322311594E+02
0.273280546918275E+02
0.271057641261176E+02
0.269095059290558E+02
0.267408883798599E+02
0.266012809356236E+02
0.264918137170362E+02
0.264133778014660E+02
0.263666259886973E+02
0.263519737616753E+02
0.296632384059713E+02
0.293159914250455E+02
0.289739783324585E+02
0.286404813627405E+02
0.283186277363293E+02
0.280113673018543E+02
0.277214542445257E+02
0.274514325740914E+02
0.272036250252508E+02
0.269801249487159E+02
0.267827907409563E+02
0.266132423527405E+02
0.264728594279158E+02
0.263627806511733E+02
0.262839039235088E+02
0.262368870336737E+02
0.262221485504556E+02
0.295086427031573E+02
0.291589867293153E+02
0.288145744722917E+02
0.284787121872748E+02
0.281545510303083E+02
0.278450644526840E+02
0.275530296540318E+02
0.272810128106564E+02
0.270313577157265E+02
0.268061774137787E+02
0.266073483822986E+02
0.264365068055145E+02
0.262950464969903E+02
0.261841180548094E+02
0.261046288728039E+02
0.260572436803338E+02
0.260423853389381E+02
0.293129141894762E+02
0.289601946601025E+02
0.286127311237792E+02
0.282738603925395E+02
0.279467640796260E+02
0.276344456779581E+02
0.273397116875480E+02
0.270651565123831E+02
0.268131507681490E+02
0.265858325887550E+02
0.263851014904990E+02
0.262126143454738E+02
0.260697830274147E+02
0.259577733202824E+02
0.258775047191330E+02
0.258296508012026E+02
0.258146399000114E+02
0.290782619556698E+02
0.287218494199706E+02
0.283707073456155E+02
0.280282093937206E+02
0.276975739191182E+02
0.273818406669792E+02
0.270838515061544E+02
0.268062349245815E+02
0.265513939339630E+02
0.263214969783869E+02
0.261184714131582E+02
0.259439991133460E+02
0.257995137833362E+02
0.256861995656323E+02
0.256049905859176E+02
0.255565711189388E+02
0.255413761134983E+02
0.288073119657386E+02
0.284466074623444E+02
0.280911897837827E+02
0.277444754357264E+02
0.274097255098942E+02
0.270900219355233E+02
0.267882477526861E+02
0.265070711384899E+02
0.262489328402345E+02
0.260160366181269E+02
0.258103422725906E+02
0.256335608250160E+02
0.254871514327980E+02
0.253723196462998E+02
0.252900166535731E+02
0.252409392052345E+02
0.252255299642709E+02
0.285030660954844E+02
0.281375064025082E+02
0.277772514636064E+02
0.274257662758309E+02
0.270863603227166E+02
0.267621633204170E+02
0.264561049680091E+02
0.261708984395388E+02
0.259090272797835E+02
0.256727353154514E+02
0.254640191669624E+02
0.252846229404134E+02
0.251360346915936E+02
0.250194842805131E+02
0.249359422724444E+02
0.248861195869116E+02
0.248704676468800E+02
0.281688566375623E+02
0.277979193660946E+02
0.274323059911603E+02
0.270755352486620E+02
0.267309702780839E+02
0.264017938067392E+02
0.260909873175671E+02
0.258013139454001E+02
0.255353047725865E+02
0.252952481459884E+02
0.250831816119105E+02
0.249008860607207E+02
0.247498816854827E+02
0.246314253853012E+02
0.245465092808732E+02
0.244958600539016E+02
0.244799388710799E+02
0.278082974791065E+02
0.274315059777743E+02
0.270600583630701E+02
0.266975319086626E+02
0.263473482340225E+02
0.260127478743970E+02
0.256967688106430E+02
0.254022287119846E+02
0.251317105724627E+02
0.248875513745379E+02
0.246718333890916E+02
0.244863777171066E+02
0.243327396911997E+02
0.242122057813265E+02
0.241257916849401E+02
0.240742413246372E+02
0.240580265234119E+02
0.274252331750678E+02
0.270421612092670E+02
0.266644535994871E+02
0.262957504601677E+02
0.259395362268971E+02
0.255991135644224E+02
0.252775812076789E+02
0.249778154977948E+02
0.247024553046633E+02
0.244538899820772E+02
0.242342499785873E+02
0.240453997242019E+02
0.238889324262999E+02
0.237661664340261E+02
0.236781428654930E+02
0.236256242333082E+02
0.236090938488900E+02
0.270236871072326E+02
0.266339632720438E+02
0.262496243806616E+02
0.258743771503100E+02
0.255117726350233E+02
0.251651794292291E+02
0.248377607743258E+02
0.245324553398105E+02
0.242519613822453E+02
0.239987239416356E+02
0.237749247134560E+02
0.235824742325221E+02
0.234230060185636E+02
0.232978723589779E+02
0.232081414383154E+02
0.231545955635661E+02
0.231377302769258E+02
0.266078098405610E+02
0.262111216613605E+02
0.258198387884120E+02
0.254377377204263E+02
0.250684393549393E+02
0.247153814507567E+02
0.243817949602183E+02
0.240706840130743E+02
0.237848092677766E+02
0.235266743042930E+02
0.232985147128332E+02
0.231022895319256E+02
0.229396747033724E+02
0.228120582369474E+02
0.227205368107239E+02
0.226659135706348E+02
0.226486969329826E+02
0.261818286723939E+02
0.257779263420319E+02
0.253794491374316E+02
0.249902458951743E+02
0.246140099636206E+02
0.242542508937733E+02
0.239142699637302E+02
0.235971393293328E+02
0.233056845300561E+02
0.230424700396476E+02
0.228097875330346E+02
0.226096465412240E+02
0.224437671804760E+02
0.223135746670667E+02
0.222201953608657E+02
0.221644541167600E+02
0.221468727604238E+02
0.257499992253087E+02
0.253386989217972E+02
0.249328427370448E+02
0.245363537444855E+02
0.241529996961140E+02
0.237863639180722E+02
0.234398200007250E+02
0.231165100871344E+02
0.228193265028516E+02
0.225508964326856E+02
0.223135693339497E+02
0.221094067771084E+02
0.219401744198079E+02
0.218073358449830E+02
0.217120480244895E+02
0.216551582035025E+02
0.216372020356197E+02
0.253165597709813E+02
0.248977464953381E+02
0.244843952619019E+02
0.240805045920564E+02
0.236899179073474E+02
0.233162936133010E+02
0.229630789360222E+02
0.226334873271866E+02
0.223304791947316E+02
0.220567456816794E+02
0.218146952012757E+02
0.216064424393275E+02
0.214337995502048E+02
0.212982692973601E+02
0.212010399187584E+02
0.211429815293333E+02
0.211246439043824E+02
0.298424844464930E+02
0.294980187870865E+02
0.291587754759307E+02
0.288280090224276E+02
0.285088190274454E+02
0.282041281112182E+02
0.279166639156261E+02
0.276489448907800E+02
0.274032694945562E+02
0.271817083783885E+02
0.269860991019594E+02
0.268180429111647E+02
0.266789031249294E+02
0.265698047038522E+02
0.264916346139839E+02
0.264450426492253E+02
0.264304424332103E+02
0.297749443719616E+02
0.294294321883075E+02
0.290891467193363E+02
0.287573529055261E+02
0.284371607381756E+02
0.281315030799098E+02
0.278431175564867E+02
0.275745322311594E+02
0.273280546918275E+02
0.271057641261176E+02
0.269095059290558E+02
0.267408883798599E+02
0.266012809356236E+02
0.264918137170362E+02
0.264133778014660E+02
0.263666259886973E+02
0.263519737616753E+02
0.296632384059713E+02
0.293159914250455E+02
0.289739783324585E+02
0.286404813627405E+02
0.283186277363293E+02
0.280113673018543E+02
0.277214542445257E+02
0.274514325740914E+02
0.272036250252508E+02
0.269801249487159E+02
0.267827907409563E+02
0.266132423527405E+02
0.264728594279158E+02
0.263627806511733E+02
0.262839039235088E+02
0.262368870336737E+02
0.262221485504556E+02
0.295086427031573E+02
0.291589867293153E+02
0.288145744722917E+02
0.284787121872748E+02
0.281545510303083E+02
0.278450644526840E+02
0.275530296540318E+02
0.272810128106564E+02
0.270313577157265E+02
0.268061774137787E+02
0.266073483822986E+02
0.264365068055145E+02
0.262950464969903E+02
0.261841180548094E+02
0.261046288728039E+02
0.260572436803338E+02
0.260423853389381E+02
0.293129141894762E+02
0.289601946601025E+02
0.286127311237792E+02
0.282738603925395E+02
0.279467640796260E+02
0.276344456779581E+02
0.273397116875480E+02
0.270651565123831E+02
0.268131507681490E+02
0.265858325887550E+02
0.263851014904990E+02
0.262126143454738E+02
0.260697830274147E+02
0.259577733202824E+02
0.258775047191330E+02
0.258296508012026E+02
0.258146399000114E+02
0.290782619556698E+02
0.287218494199706E+02
0.283707073456155E+02
0.280282093937206E+02
0.276975739191182E+02
0.273818406669792E+02
0.270838515061544E+02
0.268062349245815E+02
0.265513939339630E+02
0.263214969783869E+02
0.261184714131582E+02
0.259439991133460E+02
0.257995137833362E+02
0.256861995656323E+02
0.256049905859176E+02
0.255565711189388E+02
0.255413761134983E+02
0.288073119657386E+02
0.284466074623444E+02
0.280911897837827E+02
0.277444754357264E+02
0.274097255098942E+02
0.270900219355233E+02
0.267882477526861E+02
0.265070711384899E+02
0.262489328402345E+02
0.260160366181269E+02
0.258103422725906E+02
0.256335608250160E+02
0.254871514327980E+02
0.253723196462998E+02
0.252900166535731E+02
0.252409392052345E+02
0.252255299642709E+02
0.285030660954844E+02
0.281375064025082E+02
0.277772514636064E+02
0.274257662758309E+02
0.270863603227166E+02
0.267621633204170E+02
0.264561049680091E+02
0.261708984395388E+02
0.259090272797835E+02
0.256727353154514E+02
0.254640191669624E+02
0.252846229404134E+02
0.251360346915936E+02
0.250194842805131E+02
0.249359422724444E+02
0.248861195869116E+02
0.248704676468800E+02
0.281688566375623E+02
0.277979193660946E+02
0.274323059911603E+02
0.270755352486620E+02
0.267309702780839E+02
0.264017938067392E+02
0.260909873175671E+02
0.258013139454001E+02
0.255353047725865E+02
0.252952481459884E+02
0.250831816119105E+02
0.249008860607207E+02
0.247498816854827E+02
0.246314253853012E+02
0.245465092808732E+02
0.244958600539016E+02
0.244799388710799E+02
0.278082974791065E+02
0.274315059777743E+02
0.270600583630701E+02
0.266975319086626E+02
0.263473482340225E+02
0.260127478743970E+02
0.256967688106430E+02
0.254022287119846E+02
0.251317105724627E+02
0.248875513745379E+02
0.246718333890916E+02
0.244863777171066E+02
0.243327396911997E+02
0.242122057813265E+02
0.241257916849401E+02
0.240742413246372E+02
0.240580265234119E+02
0.274252331750678E+02
0.270421612092670E+02
0.266644535994871E+02
0.262957504601677E+02
0.259395362268971E+02
0.255991135644224E+02
0.252775812076789E+02
0.249778154977948E+02
0.247024553046633E+02
0.244538899820772E+02
0.242342499785873E+02
0.240453997242019E+02
0.238889324262999E+02
0.237661664340261E+02
0.236781428654930E+02
0.236256242333082E+02
0.236090938488900E+02
0.270236871072326E+02
0.266339632720438E+02
0.262496243806616E+02
0.258743771503100E+02
0.255117726350233E+02
0.251651794292291E+02
0.248377607743258E+02
0.245324553398105E+02
0.242519613822453E+02
0.239987239416356E+02
0.237749247134560E+02
0.235824742325221E+02
0.234230060185636E+02
0.232978723589779E+02
0.232081414383154E+02
0.231545955635661E+02
0.231377302769258E+02
0.266078098405610E+02
0.262111216613605E+02
0.258198387884120E+02
0.254377377204263E+02
0.250684393549393E+02
0.247153814507567E+02
0.243817949602183E+02
0.240706840130743E+02
0.237848092677766E+02
0.235266743042930E+02
0.232985147128332E+02
0.231022895319256E+02
0.229396747033724E+02
0.228120582369474E+02
0.227205368107239E+02
0.226659135706348E+02
0.226486969329826E+02
0.261818286723939E+02
0.257779263420319E+02
0.253794491374316E+02
0.249902458951743E+02
0.246140099636206E+02
0.242542508937733E+02
0.239142699637302E+02
0.235971393293328E+02
0.233056845300561E+02
0.230424700396476E+02
0.228097875330346E+02
0.226096465412240E+02
0.224437671804760E+02
0.223135746670667E+02
0.222201953608657E+02
0.221644541167600E+02
0.221468727604238E+02
0.257499992253087E+02
0.253386989217972E+02
0.249328427370448E+02
0.245363537444855E+02
0.241529996961140E+02
0.237863639180722E+02
0.234398200007250E+02
0.231165100871344E+02
0.228193265028516E+02
0.225508964326856E+02
0.223135693339497E+02
0.221094067771084E+02
0.219401744198079E+02
0.218073358449830E+02
0.217120480244895E+02
0.216551582035025E+02
0.216372020356197E+02
0.253165597709813E+02
0.248977464953381E+02
0.244843952619019E+02
0.240805045920564E+02
0.236899179073474E+02
0.233162936133010E+02
0.229630789360222E+02
0.226334873271866E+02
0.223304791947316E+02
0.220567456816794E+02
0.218146952012757E+02
0.216064424393275E+02
0.214337995502048E+02
0.212982692973601E+02
0.212010399187584E+02
0.211429815293333E+02
0.211246439043824E+02
0.298424844464930E+02
0.294980187870865E+02
0.291587754759307E+02
0.288280090224276E+02
0.285088190274454E+02
0.282041281112182E+02
0.279166639156261E+02
0.276489448907800E+02
0.274032694945562E+02
0.271817083783885E+02
0.269860991019594E+02
0.268180429111647E+02
0.266789031249294E+02
0.265698047038522E+02
0.264916346139839E+02
0.264450426492253E+02
0.264304424332103E+02
0.297749443719616E+02
0.294294321883075E+02
0.290891467193363E+02
0.287573529055261E+02
0.284371607381756E+02
0.281315030799098E+02
0.278431175564867E+02
0.275745322311594E+02
0.273280546918275E+02
0.271057641261176E+02
0.269095059290558E+02
0.267408883798599E+02
0.266012809356236E+02
0.264918137170362E+02
0.264133778014660E+02
0.263666259886973E+02
0.263519737616753E+02
0.296632384059713E+02
0.293159914250455E+02
0.289739783324585E+02
0.286404813627405E+02
0.283186277363293E+02
0.280113673018543E+02
0.277214542445257E+02
0.274514325740914E+02
0.272036250252508E+02
0.269801249487159E+02
0.267827907409563E+02
0.266132423527405E+02
0.264728594279158E+02
0.263627806511733E+02
0.262839039235088E+02
0.262368870336737E+02
0.262221485504556E+02
0.295086427031573E+02
0.291589867293153E+02
0.288145744722917E+02
0.284787121872748E+02
0.281545510303083E+02
0.278450644526840E+02
0.275530296540318E+02
0.272810128106564E+02
0.270313577157265E+02
0.268061774137787E+02
0.266073483822986E+02
0.264365068055145E+02
0.262950464969903E+02
0.261841180548094E+02
0.261046288728039E+02
0.260572436803338E+02
0.260423853389381E+02
0.293129141894762E+02
0.289601946601025E+02
0.286127311237792E+02
0.282738603925395E+02
0.279467640796260E+02
0.276344456779581E+02
0.273397116875480E+02
0.270651565123831E+02
0.268131507681490E+02
0.265858325887550E+02
0.263851014904990E+02
0.262126143454738E+02
0.260697830274147E+02
0.259577733202824E+02
0.258775047191330E+02
0.258296508012026E+02
0.258146399000114E+02
0.290782619556698E+02
0.287218494199706E+02
0.283707073456155E+02
0.280282093937206E+02
0.276975739191182E+02
0.273818406669792E+02
0.270838515061544E+02
0.268062349245815E+02
0.265513939339630E+02
0.263214969783869E+02
0.261184714131582E+02
0.259439991133460E+02
0.257995137833362E+02
0.256861995656323E+02
0.256049905859176E+02
0.255565711189388E+02
0.255413761134983E+02
0.288073119657386E+02
0.284466074623444E+02
0.280911897837827E+02
0.277444754357264E+02
0.274097255098942E+02
0.270900219355233E+02
0.267882477526861E+02
0.265070711384899E+02
0.262489328402345E+02
0.260160366181269E+02
0.258103422725906E+02
0.256335608250160E+02
0.254871514327980E+02
0.253723196462998E+02
0.252900166535731E+02
0.252409392052345E+02
0.252255299642709E+02
0.285030660954844E+02
0.281375064025082E+02
0.277772514636064E+02
0.274257662758309E+02
0.270863603227166E+02
0.267621633204170E+02
0.264561049680091E+02
0.261708984395388E+02
0.259090272797835E+02
0.256727353154514E+02
0.254640191669624E+02
0.252846229404134E+02
0.251360346915936E+02
0.250194842805131E+02
0.249359422724444E+02
0.248861195869116E+02
0.248704676468800E+02
0.281688566375623E+02
0.277979193660946E+02
0.274323059911603E+02
0.270755352486620E+02
0.267309702780839E+02
0.264017938067392E+02
0.260909873175671E+02
0.258013139454001E+02
0.255353047725865E+02
0.252952481459884E+02
0.250831816119105E+02
0.249008860607207E+02
0.247498816854827E+02
0.246314253853012E+02
0.245465092808732E+02
0.244958600539016E+02
0.244799388710799E+02
0.278082974791065E+02
0.274315059777743E+02
0.270600583630701E+02
0.266975319086626E+02
0.263473482340225E+02
0.260127478743970E+02
0.256967688106430E+02
0.254022287119846E+02
0.251317105724627E+02
0.248875513745379E+02
0.246718333890916E+02
0.244863777171066E+02
0.243327396911997E+02
0.242122057813265E+02
0.241257916849401E+02
0.240742413246372E+02
0.240580265234119E+02
0.274252331750678E+02
0.270421612092670E+02
0.266644535994871E+02
0.262957504601677E+02
0.259395362268971E+02
0.255991135644224E+02
0.252775812076789E+02
0.249778154977948E+02
0.247024553046633E+02
0.244538899820772E+02
0.242342499785873E+02
0.240453997242019E+02
0.238889324262999E+02
0.237661664340261E+02
0.236781428654930E+02
0.236256242333082E+02
0.236090938488900E+02
0.270236871072326E+02
0.266339632720438E+02
0.262496243806616E+02
0.258743771503100E+02
0.255117726350233E+02
0.251651794292291E+02
0.248377607743258E+02
0.245324553398105E+02
0.242519613822453E+02
0.239987239416356E+02
0.237749247134560E+02
0.235824742325221E+02
0.234230060185636E+02
0.232978723589779E+02
0.232081414383154E+02
0.231545955635661E+02
0.231377302769258E+02
0.266078098405610E+02
0.262111216613605E+02
0.258198387884120E+02
0.254377377204263E+02
0.250684393549393E+02
0.247153814507567E+02
0.243817949602183E+02
0.240706840130743E+02
0.237848092677766E+02
0.235266743042930E+02
0.232985147128332E+02
0.231022895319256E+02
0.229396747033724E+02
0.228120582369474E+02
0.227205368107239E+02
0.226659135706348E+02
0.226486969329826E+02
0.261818286723939E+02
0.257779263420319E+02
0.253794491374316E+02
0.249902458951743E+02
0.246140099636206E+02
0.242542508937733E+02
0.239142699637302E+02
0.235971393293328E+02
0.233056845300561E+02
0.230424700396476E+02
0.228097875330346E+02
0.226096465412240E+02
0.224437671804760E+02
0.223135746670667E+02
0.222201953608657E+02
0.221644541167600E+02
0.221468727604238E+02
0.257499992253087E+02
0.253386989217972E+02
0.249328427370448E+02
0.245363537444855E+02
0.241529996961140E+02
0.237863639180722E+02
0.234398200007250E+02
0.231165100871344E+02
0.228193265028516E+02
0.225508964326856E+02
0.223135693339497E+02
0.221094067771084E+02
0.219401744198079E+02
0.218073358449830E+02
0.217120480244895E+02
0.216551582035025E+02
0.216372020356197E+02
0.253165597709813E+02
0.248977464953381E+02
0.244843952619019E+02
0.240805045920564E+02
0.236899179073474E+02
0.233162936133010E+02
0.229630789360222E+02
0.226334873271866E+02
0.223304791947316E+02
0.220567456816794E+02
0.218146952012757E+02
0.216064424393275E+02
0.214337995502048E+02
0.212982692973601E+02
0.212010399187584E+02
0.211429815293333E+02
0.211246439043824E+02
0.298424844464930E+02
0.294980187870865E+02
0.291587754759307E+02
0.288280090224276E+02
0.285088190274454E+02
0.282041281112182E+02
0.279166639156261E+02
0.276489448907800E+02
0.274032694945562E+02
0.271817083783885E+02
0.269860991019594E+02
0.268180429111647E+02
0.266789031249294E+02
0.265698047038522E+02
0.264916346139839E+02
0.264450426492253E+02
0.264304424332103E+02
0.297749443719616E+02
0.294294321883075E+02
0.290891467193363E+02
0.287573529055261E+02
0.284371607381756E+02
0.281315030799098E+02
0.278431175564867E+02
0.275745322311594E+02
0.273280546918275E+02
0.271057641261176E+02
0.269095059290558E+02
0.267408883798599E+02
0.266012809356236E+02
0.264918137170362E+02
0.264133778014660E+02
0.263666259886973E+02
0.263519737616753E+02
0.296632384059713E+02
0.293159914250455E+02
0.289739783324585E+02
0.286404813627405E+02
0.283186277363293E+02
0.280113673018543E+02
0.277214542445257E+02
0.274514325740914E+02
0.272036250252508E+02
0.269801249487159E+02
0.267827907409563E+02
0.266132423527405E+02
0.264728594279158E+02
0.263627806511733E+02
0.262839039235088E+02
0.262368870336737E+02
0.262221485504556E+02
0.295086427031573E+02
0.291589867293153E+02
0.288145744722917E+02
0.284787121872748E+02
0.281545510303083E+02
0.278450644526840E+02
0.275530296540318E+02
0.272810128106564E+02
0.270313577157265E+02
0.268061774137787E+02
0.266073483822986E+02
0.264365068055145E+02
0.262950464969903E+02
0.261841180548094E+02
0.261046288728039E+02
0.260572436803338E+02
0.260423853389381E+02
0.293129141894762E+02
0.289601946601025E+02
0.286127311237792E+02
0.282738603925395E+02
0.279467640796260E+02
0.276344456779581E+02
0.273397116875480E+02
0.270651565123831E+02
0.268131507681490E+02
0.265858325887550E+02
0.263851014904990E+02
0.262126143454738E+02
0.260697830274147E+02
0.259577733202824E+02
0.258775047191330E+02
0.258296508012026E+02
0.258146399000114E+02
0.290782619556698E+02
0.287218494199706E+02
0.283707073456155E+02
0.280282093937206E+02
0.276975739191182E+02
0.273818406669792E+02
0.270838515061544E+02
0.268062349245815E+02
0.265513939339630E+02
0.263214969783869E+02
0.261184714131582E+02
0.259439991133460E+02
0.257995137833362E+02
0.256861995656323E+02
0.256049905859176E+02
0.255565711189388E+02
0.255413761134983E+02
0.288073119657386E+02
0.284466074623444E+02
0.280911897837827E+02
0.277444754357264E+02
0.274097255098942E+02
0.270900219355233E+02
0.267882477526861E+02
0.265070711384899E+02
0.262489328402345E+02
0.260160366181269E+02
0.258103422725906E+02
0.256335608250160E+02
0.254871514327980E+02
0.253723196462998E+02
0.252900166535731E+02
0.252409392052345E+02
0.252255299642709E+02
0.285030660954844E+02
0.281375064025082E+02
0.277772514636064E+02
0.274257662758309E+02
0.270863603227166E+02
0.267621633204170E+02
0.264561049680091E+02
0.261708984395388E+02
0.259090272797835E+02
0.256727353154514E+02
0.254640191669624E+02
0.252846229404134E+02
0.251360346915936E+02
0.250194842805131E+02
0.249359422724444E+02
0.248861195869116E+02
0.248704676468800E+02
0.281688566375623E+02
0.277979193660946E+02
0.274323059911603E+02
0.270755352486620E+02
0.267309702780839E+02
0.264017938067392E+02
0.260909873175671E+02
0.258013139454001E+02
0.255353047725865E+02
0.252952481459884E+02
0.250831816119105E+02
0.249008860607207E+02
0.247498816854827E+02
0.246314253853012E+02
0.245465092808732E+02
0.244958600539016E+02
0.244799388710799E+02
0.278082974791065E+02
0.274315059777743E+02
0.270600583630701E+02
0.266975319086626E+02
0.263473482340225E+02
0.260127478743970E+02
0.256967688106430E+02
0.254022287119846E+02
0.251317105724627E+02
0.248875513745379E+02
0.246718333890916E+02
0.244863777171066E+02
0.243327396911997E+02
0.242122057813265E+02
0.241257916849401E+02
0.240742413246372E+02
0.240580265234119E+02
0.274252331750678E+02
0.270421612092670E+02
0.266644535994871E+02
0.262957504601677E+02
0.259395362268971E+02
0.255991135644224E+02
0.252775812076789E+02
0.249778154977948E+02
0.247024553046633E+02
0.244538899820772E+02
0.242342499785873E+02
0.240453997242019E+02
0.238889324262999E+02
0.237661664340261E+02
0.236781428654930E+02
0.236256242333082E+02
0.236090938488900E+02
0.270236871072326E+02
0.266339632720438E+02
0.262496243806616E+02
0.258743771503100E+02
0.255117726350233E+02
0.251651794292291E+02
0.248377607743258E+02
0.245324553398105E+02
0.242519613822453E+02
0.239987239416356E+02
0.237749247134560E+02
0.235824742325221E+02
0.234230060185636E+02
0.232978723589779E+02
0.232081414383154E+02
0.231545955635661E+02
0.231377302769258E+02
0.266078098405610E+02
0.262111216613605E+02
0.258198387884120E+02
0.254377377204263E+02
0.250684393549393E+02
0.247153814507567E+02
0.243817949602183E+02
0.240706840130743E+02
0.237848092677766E+02
0.235266743042930E+02
0.232985147128332E+02
0.231022895319256E+02
0.229396747033724E+02
0.228120582369474E+02
0.227205368107239E+02
0.226659135706348E+02
0.226486969329826E+02
0.261818286723939E+02
0.257779263420319E+02
0.253794491374316E+02
0.249902458951743E+02
0.246140099636206E+02
0.242542508937733E+02
0.239142699637302E+02
0.235971393293328E+02
0.233056845300561E+02
0.230424700396476E+02
0.228097875330346E+02
0.226096465412240E+02
0.224437671804760E+02
0.223135746670667E+02
0.222201953608657E+02
0.221644541167600E+02
0.221468727604238E+02
0.257499992253087E+02
0.253386989217972E+02
0.249328427370448E+02
0.245363537444855E+02
0.241529996961140E+02
0.237863639180722E+02
0.234398200007250E+02
0.231165100871344E+02
0.228193265028516E+02
0.225508964326856E+02
0.223135693339497E+02
0.221094067771084E+02
0.219401744198079E+02
0.218073358449830E+02
0.217120480244895E+02
0.216551582035025E+02
0.216372020356197E+02
0.253165597709813E+02
0.248977464953381E+02
0.244843952619019E+02
0.240805045920564E+02
0.236899179073474E+02
0.233162936133010E+02
0.229630789360222E+02
0.226334873271866E+02
0.223304791947316E+02
0.220567456816794E+02
0.218146952012757E+02
0.216064424393275E+02
0.214337995502048E+02
0.212982692973601E+02
0.212010399187584E+02
0.211429815293333E+02
0.211246439043824E+02
</DataArray>
</PointData>
</Piece>
</RectilinearGrid>
</VTKFile>
