<?xml version="1.0"?>
<VTKFile type="RectilinearGrid" version="0.1" byte_order="LittleEndian">
<RectilinearGrid WholeExtent="0   63    0   63    0    3">
<Piece Extent="15   31   31   47    0    3">
<Coordinates>
<DataArray Name="x" type="Float32" format="ascii">
0.150000000000000E+01
0.160000000000000E+01
0.170000000000000E+01
0.180000000000000E+01
0.190000000000000E+01
0.200000000000000E+01
0.210000000000000E+01
0.220000000000000E+01
0.230000000000000E+01
0.240000000000000E+01
0.250000000000000E+01
0.260000000000000E+01
0.270000000000000E+01
0.280000000000000E+01
0.290000000000000E+01
0.300000000000000E+01
0.310000000000000E+01
</DataArray>
<DataArray Name="y" type="Float32" format="ascii">
0.310000000000000E+01
0.320000000000000E+01
0.330000000000000E+01
0.340000000000000E+01
0.350000000000000E+01
0.360000000000000E+01
0.370000000000000E+01
0.380000000000000E+01
0.390000000000000E+01
0.400000000000000E+01
0.410000000000000E+01
0.420000000000000E+01
0.430000000000000E+01
0.440000000000000E+01
0.450000000000000E+01
0.460000000000000E+01
0.470000000000000E+01
</DataArray>
<DataArray Name="z" type="Float32" format="ascii">
0.000000000000000E+00
0.100000000000000E+00
0.200000000000000E+00
0.300000000000000E+00
</DataArray>
</Coordinates>
<PointData Scalars="c">
<DataArray type="Float32" Name="c" format="ascii">
0.205190068218620E+02
0.199473145155689E+02
0.193827096924587E+02
0.188306048787433E+02
0.182962223304260E+02
0.177845566186802E+02
0.173003405119098E+02
0.168480136774210E+02
0.164316938112171E+02
0.160551499302489E+02
0.157217777092365E+02
0.154345768950669E+02
0.151961309680368E+02
0.150085893257873E+02
0.148736523315523E+02
0.147925595869617E+02
0.147660817599275E+02
0.205409327067001E+02
0.199697517818764E+02
0.194056601828771E+02
0.188540652293904E+02
0.183201838310050E+02
0.178090051324114E+02
0.173252564638049E+02
0.168733721184427E+02
0.164574645643936E+02
0.160812978228677E+02
0.157482628928853E+02
0.154613552526199E+02
0.152231546038167E+02
0.150358071322114E+02
0.149010106227495E+02
0.148200027872787E+02
0.147935531330722E+02
0.206065452481847E+02
0.200368921251876E+02
0.194743337817613E+02
0.189242619844883E+02
0.183918776739149E+02
0.178821537883494E+02
0.173998014182321E+02
0.169492388101214E+02
0.165345628229435E+02
0.161595225630904E+02
0.158274950711094E+02
0.155414630823547E+02
0.153039950194559E+02
0.151172274808223E+02
0.149828505555708E+02
0.149020963148903E+02
0.148757308017364E+02
0.207153495390780E+02
0.201482217399412E+02
0.195881975658709E+02
0.190406430817402E+02
0.185107328454753E+02
0.180034130266253E+02
0.175233678971737E+02
0.170749892088522E+02
0.166623480523734E+02
0.162891689156311E+02
0.159588058020578E+02
0.156742204184128E+02
0.154379625757940E+02
0.152521530537678E+02
0.151184692441607E+02
0.150381339119319E+02
0.150119073843754E+02
0.208665221637040E+02
0.203028861395771E+02
0.197463656226078E+02
0.192022911526603E+02
0.186758008347533E+02
0.181718038643189E+02
0.176949474817722E+02
0.172495868640853E+02
0.168397575388540E+02
0.164691500248062E+02
0.161410865440871E+02
0.158584997976031E+02
0.156239139279141E+02
0.154394278998946E+02
0.153067015967039E+02
0.152269449511829E+02
0.152009104093166E+02
0.210589133125430E+02
0.204996928931267E+02
0.199476024237345E+02
0.194079275417550E+02
0.188857602990739E+02
0.183859632001221E+02
0.179131367404954E+02
0.174715899455993E+02
0.170653134823745E+02
0.166979550316395E+02
0.163727967465191E+02
0.160927347657037E+02
0.158602608818405E+02
0.156774465706304E+02
0.155459296543567E+02
0.154669038982877E+02
0.154411118182873E+02
0.212910496975339E+02
0.207371153774007E+02
0.201903274346137E+02
0.196559177838439E+02
0.191389234104086E+02
0.186441510199867E+02
0.181761452728577E+02
0.177391600923755E+02
0.173371326060125E+02
0.169736593870945E+02
0.166519747991860E+02
0.163749313852026E+02
0.161449823729281E+02
0.159641664733426E+02
0.158340952173062E+02
0.157559431033891E+02
0.157304408135177E+02
0.215611382558272E+02
0.210132975010296E+02
0.204726208827885E+02
0.199442784302955E+02
0.194332437401722E+02
0.189442593282549E+02
0.184818056608392E+02
0.180500733440121E+02
0.176529380126774E+02
0.172939375653202E+02
0.169762515197481E+02
0.167026824015677E+02
0.164756392045315E+02
0.162971230660028E+02
0.161687153710394E+02
0.160915685287246E+02
0.160663996527805E+02
0.218670706688545E+02
0.213260593899884E+02
0.207922306371710E+02
0.202706851363797E+02
0.197663255553050E+02
0.192838226380868E+02
0.188275851235438E+02
0.184017329132992E+02
0.180100730129585E+02
0.176560778680452E+02
0.173428658404654E+02
0.170731837038260E+02
0.168493911608546E+02
0.166734474895953E+02
0.165469004965433E+02
0.164708779881781E+02
0.164460819657632E+02
0.222064287874369E+02
0.216729040844585E+02
0.211465802055858E+02
0.206324819745829E+02
0.201354344473159E+02
0.196600298999614E+02
0.192105987118475E+02
0.187911835961667E+02
0.184055166818636E+02
0.180569990422156E+02
0.177486823841642E+02
0.174832527407442E+02
0.172630161312353E+02
0.170898862563444E+02
0.169653743685444E+02
0.168905814944061E+02
0.168661931845455E+02
0.225764911404672E+02
0.220510253823003E+02
0.215327779423897E+02
0.210266920212406E+02
0.205375092969763E+02
0.200697378265632E+02
0.196276239578643E+02
0.192151276918814E+02
0.188359009775586E+02
0.184932685070523E+02
0.181902106920958E+02
0.179293486258661E+02
0.177129309542478E+02
0.175428226822894E+02
0.174204960158602E+02
0.173470233788250E+02
0.173230727505176E+02
0.229742408092823E+02
0.224573170698254E+02
0.219476276641569E+02
0.214500293709614E+02
0.209691756853350E+02
0.205094856811883E+02
0.200751170037015E+02
0.196699424168090E+02
0.192975293664052E+02
0.189611220985810E+02
0.186636259788835E+02
0.184075937777072E+02
0.181952138035067E+02
0.180282998666121E+02
0.179082831320795E+02
0.178362059640501E+02
0.178127178744346E+02
0.233963750638461E+02
0.228883838974453E+02
0.223876409912669E+02
0.218989128561824E+02
0.214267609876097E+02
0.209755117256900E+02
0.205492303657983E+02
0.201516989296958E+02
0.197863970359091E+02
0.194564853794853E+02
0.191647914317989E+02
0.189137970854295E+02
0.187056280827532E+02
0.185420451671398E+02
0.184244369727736E+02
0.183538147169530E+02
0.183308087750736E+02
0.238393172692475E+02
0.233405547747968E+02
0.228490518550307E+02
0.223694818758388E+02
0.219063115180347E+02
0.214637716603476E+02
0.210458326322394E+02
0.206561832321004E+02
0.202982129271889E+02
0.199749967161480E+02
0.196892822292640E+02
0.194434787511724E+02
0.192396479613531E+02
0.190794962871596E+02
0.189643688427231E+02
0.188952449787376E+02
0.188727354905141E+02
0.242992316689047E+02
0.238098987638143E+02
0.233278337200192E+02
0.228576148534389E+02
0.224036122163589E+02
0.219699595169225E+02
0.215605305254545E+02
0.211789193485316E+02
0.208284239651143E+02
0.205120324764887E+02
0.202324116099374E+02
0.199918971208267E+02
0.197924858454591E+02
0.196358292555943E+02
0.195232284455965E+02
0.194556305386255E+02
0.194336265266652E+02
0.247720417205639E+02
0.242922445247772E+02
0.238197201548837E+02
0.233589509356516E+02
0.229142094647506E+02
0.224895315714250E+02
0.220886938750278E+02
0.217151953099760E+02
0.213722419898366E+02
0.210627348337771E+02
0.207892594607465E+02
0.205540779568230E+02
0.203591222259043E+02
0.202059887316303E+02
0.200959345199031E+02
0.200298744705523E+02
0.200083797609544E+02
0.252534526894319E+02
0.247832039058365E+02
0.243202294278842E+02
0.238689155930461E+02
0.234334376820528E+02
0.230177339089201E+02
0.226254841186075E+02
0.222600925449637E+02
0.219246739807361E+02
0.216220427552512E+02
0.213547039916387E+02
0.211248467109802E+02
0.209343384526585E+02
0.207847211770696E+02
0.206772082997131E+02
0.206126827684617E+02
0.205916961357846E+02
0.205190068218620E+02
0.199473145155689E+02
0.193827096924587E+02
0.188306048787433E+02
0.182962223304260E+02
0.177845566186802E+02
0.173003405119098E+02
0.168480136774210E+02
0.164316938112171E+02
0.160551499302489E+02
0.157217777092365E+02
0.154345768950669E+02
0.151961309680368E+02
0.150085893257873E+02
0.148736523315523E+02
0.147925595869617E+02
0.147660817599275E+02
0.205409327067001E+02
0.199697517818764E+02
0.194056601828771E+02
0.188540652293904E+02
0.183201838310050E+02
0.178090051324114E+02
0.173252564638049E+02
0.168733721184427E+02
0.164574645643936E+02
0.160812978228677E+02
0.157482628928853E+02
0.154613552526199E+02
0.152231546038167E+02
0.150358071322114E+02
0.149010106227495E+02
0.148200027872787E+02
0.147935531330722E+02
0.206065452481847E+02
0.200368921251876E+02
0.194743337817613E+02
0.189242619844883E+02
0.183918776739149E+02
0.178821537883494E+02
0.173998014182321E+02
0.169492388101214E+02
0.165345628229435E+02
0.161595225630904E+02
0.158274950711094E+02
0.155414630823547E+02
0.153039950194559E+02
0.151172274808223E+02
0.149828505555708E+02
0.149020963148903E+02
0.148757308017364E+02
0.207153495390780E+02
0.201482217399412E+02
0.195881975658709E+02
0.190406430817402E+02
0.185107328454753E+02
0.180034130266253E+02
0.175233678971737E+02
0.170749892088522E+02
0.166623480523734E+02
0.162891689156311E+02
0.159588058020578E+02
0.156742204184128E+02
0.154379625757940E+02
0.152521530537678E+02
0.151184692441607E+02
0.150381339119319E+02
0.150119073843754E+02
0.208665221637040E+02
0.203028861395771E+02
0.197463656226078E+02
0.192022911526603E+02
0.186758008347533E+02
0.181718038643189E+02
0.176949474817722E+02
0.172495868640853E+02
0.168397575388540E+02
0.164691500248062E+02
0.161410865440871E+02
0.158584997976031E+02
0.156239139279141E+02
0.154394278998946E+02
0.153067015967039E+02
0.152269449511829E+02
0.152009104093166E+02
0.210589133125430E+02
0.204996928931267E+02
0.199476024237345E+02
0.194079275417550E+02
0.188857602990739E+02
0.183859632001221E+02
0.179131367404954E+02
0.174715899455993E+02
0.170653134823745E+02
0.166979550316395E+02
0.163727967465191E+02
0.160927347657037E+02
0.158602608818405E+02
0.156774465706304E+02
0.155459296543567E+02
0.154669038982877E+02
0.154411118182873E+02
0.212910496975339E+02
0.207371153774007E+02
0.201903274346137E+02
0.196559177838439E+02
0.191389234104086E+02
0.186441510199867E+02
0.181761452728577E+02
0.177391600923755E+02
0.173371326060125E+02
0.169736593870945E+02
0.166519747991860E+02
0.163749313852026E+02
0.161449823729281E+02
0.159641664733426E+02
0.158340952173062E+02
0.157559431033891E+02
0.157304408135177E+02
0.215611382558272E+02
0.210132975010296E+02
0.204726208827885E+02
0.199442784302955E+02
0.194332437401722E+02
0.189442593282549E+02
0.184818056608392E+02
0.180500733440121E+02
0.176529380126774E+02
0.172939375653202E+02
0.169762515197481E+02
0.167026824015677E+02
0.164756392045315E+02
0.162971230660028E+02
0.161687153710394E+02
0.160915685287246E+02
0.160663996527805E+02
0.218670706688545E+02
0.213260593899884E+02
0.207922306371710E+02
0.202706851363797E+02
0.197663255553050E+02
0.192838226380868E+02
0.188275851235438E+02
0.184017329132992E+02
0.180100730129585E+02
0.176560778680452E+02
0.173428658404654E+02
0.170731837038260E+02
0.168493911608546E+02
0.166734474895953E+02
0.165469004965433E+02
0.164708779881781E+02
0.164460819657632E+02
0.222064287874369E+02
0.216729040844585E+02
0.211465802055858E+02
0.206324819745829E+02
0.201354344473159E+02
0.196600298999614E+02
0.192105987118475E+02
0.187911835961667E+02
0.184055166818636E+02
0.180569990422156E+02
0.177486823841642E+02
0.174832527407442E+02
0.172630161312353E+02
0.170898862563444E+02
0.169653743685444E+02
0.168905814944061E+02
0.168661931845455E+02
0.225764911404672E+02
0.220510253823003E+02
0.215327779423897E+02
0.210266920212406E+02
0.205375092969763E+02
0.200697378265632E+02
0.196276239578643E+02
0.192151276918814E+02
0.188359009775586E+02
0.184932685070523E+02
0.181902106920958E+02
0.179293486258661E+02
0.177129309542478E+02
0.175428226822894E+02
0.174204960158602E+02
0.173470233788250E+02
0.173230727505176E+02
0.229742408092823E+02
0.224573170698254E+02
0.219476276641569E+02
0.214500293709614E+02
0.209691756853350E+02
0.205094856811883E+02
0.200751170037015E+02
0.196699424168090E+02
0.192975293664052E+02
0.189611220985810E+02
0.186636259788835E+02
0.184075937777072E+02
0.181952138035067E+02
0.180282998666121E+02
0.179082831320795E+02
0.178362059640501E+02
0.178127178744346E+02
0.233963750638461E+02
0.228883838974453E+02
0.223876409912669E+02
0.218989128561824E+02
0.214267609876097E+02
0.209755117256900E+02
0.205492303657983E+02
0.201516989296958E+02
0.197863970359091E+02
0.194564853794853E+02
0.191647914317989E+02
0.189137970854295E+02
0.187056280827532E+02
0.185420451671398E+02
0.184244369727736E+02
0.183538147169530E+02
0.183308087750736E+02
0.238393172692475E+02
0.233405547747968E+02
0.228490518550307E+02
0.223694818758388E+02
0.219063115180347E+02
0.214637716603476E+02
0.210458326322394E+02
0.206561832321004E+02
0.202982129271889E+02
0.199749967161480E+02
0.196892822292640E+02
0.194434787511724E+02
0.192396479613531E+02
0.190794962871596E+02
0.189643688427231E+02
0.188952449787376E+02
0.188727354905141E+02
0.242992316689047E+02
0.238098987638143E+02
0.233278337200192E+02
0.228576148534389E+02
0.224036122163589E+02
0.219699595169225E+02
0.215605305254545E+02
0.211789193485316E+02
0.208284239651143E+02
0.205120324764887E+02
0.202324116099374E+02
0.199918971208267E+02
0.197924858454591E+02
0.196358292555943E+02
0.195232284455965E+02
0.194556305386255E+02
0.194336265266652E+02
0.247720417205639E+02
0.242922445247772E+02
0.238197201548837E+02
0.233589509356516E+02
0.229142094647506E+02
0.224895315714250E+02
0.220886938750278E+02
0.217151953099760E+02
0.213722419898366E+02
0.210627348337771E+02
0.207892594607465E+02
0.205540779568230E+02
0.203591222259043E+02
0.202059887316303E+02
0.200959345199031E+02
0.200298744705523E+02
0.200083797609544E+02
0.252534526894319E+02
0.247832039058365E+02
0.243202294278842E+02
0.238689155930461E+02
0.234334376820528E+02
0.230177339089201E+02
0.226254841186075E+02
0.222600925449637E+02
0.219246739807361E+02
0.216220427552512E+02
0.213547039916387E+02
0.211248467109802E+02
0.209343384526585E+02
0.207847211770696E+02
0.206772082997131E+02
0.206126827684617E+02
0.205916961357846E+02
0.205190068218620E+02
0.199473145155689E+02
0.193827096924587E+02
0.188306048787433E+02
0.182962223304260E+02
0.177845566186802E+02
0.173003405119098E+02
0.168480136774210E+02
0.164316938112171E+02
0.160551499302489E+02
0.157217777092365E+02
0.154345768950669E+02
0.151961309680368E+02
0.150085893257873E+02
0.148736523315523E+02
0.147925595869617E+02
0.147660817599275E+02
0.205409327067001E+02
0.199697517818764E+02
0.194056601828771E+02
0.188540652293904E+02
0.183201838310050E+02
0.178090051324114E+02
0.173252564638049E+02
0.168733721184427E+02
0.164574645643936E+02
0.160812978228677E+02
0.157482628928853E+02
0.154613552526199E+02
0.152231546038167E+02
0.150358071322114E+02
0.149010106227495E+02
0.148200027872787E+02
0.147935531330722E+02
0.206065452481847E+02
0.200368921251876E+02
0.194743337817613E+02
0.189242619844883E+02
0.183918776739149E+02
0.178821537883494E+02
0.173998014182321E+02
0.169492388101214E+02
0.165345628229435E+02
0.161595225630904E+02
0.158274950711094E+02
0.155414630823547E+02
0.153039950194559E+02
0.151172274808223E+02
0.149828505555708E+02
0.149020963148903E+02
0.148757308017364E+02
0.207153495390780E+02
0.201482217399412E+02
0.195881975658709E+02
0.190406430817402E+02
0.185107328454753E+02
0.180034130266253E+02
0.175233678971737E+02
0.170749892088522E+02
0.166623480523734E+02
0.162891689156311E+02
0.159588058020578E+02
0.156742204184128E+02
0.154379625757940E+02
0.152521530537678E+02
0.151184692441607E+02
0.150381339119319E+02
0.150119073843754E+02
0.208665221637040E+02
0.203028861395771E+02
0.197463656226078E+02
0.192022911526603E+02
0.186758008347533E+02
0.181718038643189E+02
0.176949474817722E+02
0.172495868640853E+02
0.168397575388540E+02
0.164691500248062E+02
0.161410865440871E+02
0.158584997976031E+02
0.156239139279141E+02
0.154394278998946E+02
0.153067015967039E+02
0.152269449511829E+02
0.152009104093166E+02
0.210589133125430E+02
0.204996928931267E+02
0.199476024237345E+02
0.194079275417550E+02
0.188857602990739E+02
0.183859632001221E+02
0.179131367404954E+02
0.174715899455993E+02
0.170653134823745E+02
0.166979550316395E+02
0.163727967465191E+02
0.160927347657037E+02
0.158602608818405E+02
0.156774465706304E+02
0.155459296543567E+02
0.154669038982877E+02
0.154411118182873E+02
0.212910496975339E+02
0.207371153774007E+02
0.201903274346137E+02
0.196559177838439E+02
0.191389234104086E+02
0.186441510199867E+02
0.181761452728577E+02
0.177391600923755E+02
0.173371326060125E+02
0.169736593870945E+02
0.166519747991860E+02
0.163749313852026E+02
0.161449823729281E+02
0.159641664733426E+02
0.158340952173062E+02
0.157559431033891E+02
0.157304408135177E+02
0.215611382558272E+02
0.210132975010296E+02
0.204726208827885E+02
0.199442784302955E+02
0.194332437401722E+02
0.189442593282549E+02
0.184818056608392E+02
0.180500733440121E+02
0.176529380126774E+02
0.172939375653202E+02
0.169762515197481E+02
0.167026824015677E+02
0.164756392045315E+02
0.162971230660028E+02
0.161687153710394E+02
0.160915685287246E+02
0.160663996527805E+02
0.218670706688545E+02
0.213260593899884E+02
0.207922306371710E+02
0.202706851363797E+02
0.197663255553050E+02
0.192838226380868E+02
0.188275851235438E+02
0.184017329132992E+02
0.180100730129585E+02
0.176560778680452E+02
0.173428658404654E+02
0.170731837038260E+02
0.168493911608546E+02
0.166734474895953E+02
0.165469004965433E+02
0.164708779881781E+02
0.164460819657632E+02
0.222064287874369E+02
0.216729040844585E+02
0.211465802055858E+02
0.206324819745829E+02
0.201354344473159E+02
0.196600298999614E+02
0.192105987118475E+02
0.187911835961667E+02
0.184055166818636E+02
0.180569990422156E+02
0.177486823841642E+02
0.174832527407442E+02
0.172630161312353E+02
0.170898862563444E+02
0.169653743685444E+02
0.168905814944061E+02
0.168661931845455E+02
0.225764911404672E+02
0.220510253823003E+02
0.215327779423897E+02
0.210266920212406E+02
0.205375092969763E+02
0.200697378265632E+02
0.196276239578643E+02
0.192151276918814E+02
0.188359009775586E+02
0.184932685070523E+02
0.181902106920958E+02
0.179293486258661E+02
0.177129309542478E+02
0.175428226822894E+02
0.174204960158602E+02
0.173470233788250E+02
0.173230727505176E+02
0.229742408092823E+02
0.224573170698254E+02
0.219476276641569E+02
0.214500293709614E+02
0.209691756853350E+02
0.205094856811883E+02
0.200751170037015E+02
0.196699424168090E+02
0.192975293664052E+02
0.189611220985810E+02
0.186636259788835E+02
0.184075937777072E+02
0.181952138035067E+02
0.180282998666121E+02
0.179082831320795E+02
0.178362059640501E+02
0.178127178744346E+02
0.233963750638461E+02
0.228883838974453E+02
0.223876409912669E+02
0.218989128561824E+02
0.214267609876097E+02
0.209755117256900E+02
0.205492303657983E+02
0.201516989296958E+02
0.197863970359091E+02
0.194564853794853E+02
0.191647914317989E+02
0.189137970854295E+02
0.187056280827532E+02
0.185420451671398E+02
0.184244369727736E+02
0.183538147169530E+02
0.183308087750736E+02
0.238393172692475E+02
0.233405547747968E+02
0.228490518550307E+02
0.223694818758388E+02
0.219063115180347E+02
0.214637716603476E+02
0.210458326322394E+02
0.206561832321004E+02
0.202982129271889E+02
0.199749967161480E+02
0.196892822292640E+02
0.194434787511724E+02
0.192396479613531E+02
0.190794962871596E+02
0.189643688427231E+02
0.188952449787376E+02
0.188727354905141E+02
0.242992316689047E+02
0.238098987638143E+02
0.233278337200192E+02
0.228576148534389E+02
0.224036122163589E+02
0.219699595169225E+02
0.215605305254545E+02
0.211789193485316E+02
0.208284239651143E+02
0.205120324764887E+02
0.202324116099374E+02
0.199918971208267E+02
0.197924858454591E+02
0.196358292555943E+02
0.195232284455965E+02
0.194556305386255E+02
0.194336265266652E+02
0.247720417205639E+02
0.242922445247772E+02
0.238197201548837E+02
0.233589509356516E+02
0.229142094647506E+02
0.224895315714250E+02
0.220886938750278E+02
0.217151953099760E+02
0.213722419898366E+02
0.210627348337771E+02
0.207892594607465E+02
0.205540779568230E+02
0.203591222259043E+02
0.202059887316303E+02
0.200959345199031E+02
0.200298744705523E+02
0.200083797609544E+02
0.252534526894319E+02
0.247832039058365E+02
0.243202294278842E+02
0.238689155930461E+02
0.234334376820528E+02
0.230177339089201E+02
0.226254841186075E+02
0.222600925449637E+02
0.219246739807361E+02
0.216220427552512E+02
0.213547039916387E+02
0.211248467109802E+02
0.209343384526585E+02
0.207847211770696E+02
0.206772082997131E+02
0.206126827684617E+02
0.205916961357846E+02
0.205190068218620E+02
0.199473145155689E+02
0.193827096924587E+02
0.188306048787433E+02
0.182962223304260E+02
0.177845566186802E+02
0.173003405119098E+02
0.168480136774210E+02
0.164316938112171E+02
0.160551499302489E+02
0.157217777092365E+02
0.154345768950669E+02
0.151961309680368E+02
0.150085893257873E+02
0.148736523315523E+02
0.147925595869617E+02
0.147660817599275E+02
0.205409327067001E+02
0.199697517818764E+02
0.194056601828771E+02
0.188540652293904E+02
0.183201838310050E+02
0.178090051324114E+02
0.173252564638049E+02
0.168733721184427E+02
0.164574645643936E+02
0.160812978228677E+02
0.157482628928853E+02
0.154613552526199E+02
0.152231546038167E+02
0.150358071322114E+02
0.149010106227495E+02
0.148200027872787E+02
0.147935531330722E+02
0.206065452481847E+02
0.200368921251876E+02
0.194743337817613E+02
0.189242619844883E+02
0.183918776739149E+02
0.178821537883494E+02
0.173998014182321E+02
0.169492388101214E+02
0.165345628229435E+02
0.161595225630904E+02
0.158274950711094E+02
0.155414630823547E+02
0.153039950194559E+02
0.151172274808223E+02
0.149828505555708E+02
0.149020963148903E+02
0.148757308017364E+02
0.207153495390780E+02
0.201482217399412E+02
0.195881975658709E+02
0.190406430817402E+02
0.185107328454753E+02
0.180034130266253E+02
0.175233678971737E+02
0.170749892088522E+02
0.166623480523734E+02
0.162891689156311E+02
0.159588058020578E+02
0.156742204184128E+02
0.154379625757940E+02
0.152521530537678E+02
0.151184692441607E+02
0.150381339119319E+02
0.150119073843754E+02
0.208665221637040E+02
0.203028861395771E+02
0.197463656226078E+02
0.192022911526603E+02
0.186758008347533E+02
0.181718038643189E+02
0.176949474817722E+02
0.172495868640853E+02
0.168397575388540E+02
0.164691500248062E+02
0.161410865440871E+02
0.158584997976031E+02
0.156239139279141E+02
0.154394278998946E+02
0.153067015967039E+02
0.152269449511829E+02
0.152009104093166E+02
0.210589133125430E+02
0.204996928931267E+02
0.199476024237345E+02
0.194079275417550E+02
0.188857602990739E+02
0.183859632001221E+02
0.179131367404954E+02
0.174715899455993E+02
0.170653134823745E+02
0.166979550316395E+02
0.163727967465191E+02
0.160927347657037E+02
0.158602608818405E+02
0.156774465706304E+02
0.155459296543567E+02
0.154669038982877E+02
0.154411118182873E+02
0.212910496975339E+02
0.207371153774007E+02
0.201903274346137E+02
0.196559177838439E+02
0.191389234104086E+02
0.186441510199867E+02
0.181761452728577E+02
0.177391600923755E+02
0.173371326060125E+02
0.169736593870945E+02
0.166519747991860E+02
0.163749313852026E+02
0.161449823729281E+02
0.159641664733426E+02
0.158340952173062E+02
0.157559431033891E+02
0.157304408135177E+02
0.215611382558272E+02
0.210132975010296E+02
0.204726208827885E+02
0.199442784302955E+02
0.194332437401722E+02
0.189442593282549E+02
0.184818056608392E+02
0.180500733440121E+02
0.176529380126774E+02
0.172939375653202E+02
0.169762515197481E+02
0.167026824015677E+02
0.164756392045315E+02
0.162971230660028E+02
0.161687153710394E+02
0.160915685287246E+02
0.160663996527805E+02
0.218670706688545E+02
0.213260593899884E+02
0.207922306371710E+02
0.202706851363797E+02
0.197663255553050E+02
0.192838226380868E+02
0.188275851235438E+02
0.184017329132992E+02
0.180100730129585E+02
0.176560778680452E+02
0.173428658404654E+02
0.170731837038260E+02
0.168493911608546E+02
0.166734474895953E+02
0.165469004965433E+02
0.164708779881781E+02
0.164460819657632E+02
0.222064287874369E+02
0.216729040844585E+02
0.211465802055858E+02
0.206324819745829E+02
0.201354344473159E+02
0.196600298999614E+02
0.192105987118475E+02
0.187911835961667E+02
0.184055166818636E+02
0.180569990422156E+02
0.177486823841642E+02
0.174832527407442E+02
0.172630161312353E+02
0.170898862563444E+02
0.169653743685444E+02
0.168905814944061E+02
0.168661931845455E+02
0.225764911404672E+02
0.220510253823003E+02
0.215327779423897E+02
0.210266920212406E+02
0.205375092969763E+02
0.200697378265632E+02
0.196276239578643E+02
0.192151276918814E+02
0.188359009775586E+02
0.184932685070523E+02
0.181902106920958E+02
0.179293486258661E+02
0.177129309542478E+02
0.175428226822894E+02
0.174204960158602E+02
0.173470233788250E+02
0.173230727505176E+02
0.229742408092823E+02
0.224573170698254E+02
0.219476276641569E+02
0.214500293709614E+02
0.209691756853350E+02
0.205094856811883E+02
0.200751170037015E+02
0.196699424168090E+02
0.192975293664052E+02
0.189611220985810E+02
0.186636259788835E+02
0.184075937777072E+02
0.181952138035067E+02
0.180282998666121E+02
0.179082831320795E+02
0.178362059640501E+02
0.178127178744346E+02
0.233963750638461E+02
0.228883838974453E+02
0.223876409912669E+02
0.218989128561824E+02
0.214267609876097E+02
0.209755117256900E+02
0.205492303657983E+02
0.201516989296958E+02
0.197863970359091E+02
0.194564853794853E+02
0.191647914317989E+02
0.189137970854295E+02
0.187056280827532E+02
0.185420451671398E+02
0.184244369727736E+02
0.183538147169530E+02
0.183308087750736E+02
0.238393172692475E+02
0.233405547747968E+02
0.228490518550307E+02
0.223694818758388E+02
0.219063115180347E+02
0.214637716603476E+02
0.210458326322394E+02
0.206561832321004E+02
0.202982129271889E+02
0.199749967161480E+02
0.196892822292640E+02
0.194434787511724E+02
0.192396479613531E+02
0.190794962871596E+02
0.189643688427231E+02
0.188952449787376E+02
0.188727354905141E+02
0.242992316689047E+02
0.238098987638143E+02
0.233278337200192E+02
0.228576148534389E+02
0.224036122163589E+02
0.219699595169225E+02
0.215605305254545E+02
0.211789193485316E+02
0.208284239651143E+02
0.205120324764887E+02
0.202324116099374E+02
0.199918971208267E+02
0.197924858454591E+02
0.196358292555943E+02
0.195232284455965E+02
0.194556305386255E+02
0.194336265266652E+02
0.247720417205639E+02
0.242922445247772E+02
0.238197201548837E+02
0.233589509356516E+02
0.229142094647506E+02
0.224895315714250E+02
0.220886938750278E+02
0.217151953099760E+02
0.213722419898366E+02
0.210627348337771E+02
0.207892594607465E+02
0.205540779568230E+02
0.203591222259043E+02
0.202059887316303E+02
0.200959345199031E+02
0.200298744705523E+02
0.200083797609544E+02
0.252534526894319E+02
0.247832039058365E+02
0.243202294278842E+02
0.238689155930461E+02
0.234334376820528E+02
0.230177339089201E+02
0.226254841186075E+02
0.222600925449637E+02
0.219246739807361E+02
0.216220427552512E+02
0.213547039916387E+02
0.211248467109802E+02
0.209343384526585E+02
0.207847211770696E+02
0.206772082997131E+02
0.206126827684617E+02
0.205916961357846E+02
</DataArray>
</PointData>
</Piece>
</RectilinearGrid>
</VTKFile>
