<?xml version="1.0"?>
<VTKFile type="RectilinearGrid" version="0.1" byte_order="LittleEndian">
<RectilinearGrid WholeExtent="0   63    0   63    0    3">
<Piece Extent="47   63   31   47    0    3">
<Coordinates>
<DataArray Name="x" type="Float32" format="ascii">
0.470000000000000E+01
0.480000000000000E+01
0.490000000000000E+01
0.500000000000000E+01
0.510000000000000E+01
0.520000000000000E+01
0.530000000000000E+01
0.540000000000000E+01
0.550000000000000E+01
0.560000000000000E+01
0.570000000000000E+01
0.580000000000000E+01
0.590000000000000E+01
0.600000000000000E+01
0.610000000000000E+01
0.620000000000000E+01
0.630000000000000E+01
</DataArray>
<DataArray Name="y" type="Float32" format="ascii">
0.310000000000000E+01
0.320000000000000E+01
0.330000000000000E+01
0.340000000000000E+01
0.350000000000000E+01
0.360000000000000E+01
0.370000000000000E+01
0.380000000000000E+01
0.390000000000000E+01
0.400000000000000E+01
0.410000000000000E+01
0.420000000000000E+01
0.430000000000000E+01
0.440000000000000E+01
0.450000000000000E+01
0.460000000000000E+01
0.470000000000000E+01
</DataArray>
<DataArray Name="z" type="Float32" format="ascii">
0.000000000000000E+00
0.100000000000000E+00
0.200000000000000E+00
0.300000000000000E+00
</DataArray>
</Coordinates>
<PointData Scalars="c">
<DataArray type="Float32" Name="c" format="ascii">
0.193611934175352E+02
0.201352387174742E+02
0.209112841116707E+02
0.216828494222802E+02
0.224431907195809E+02
0.231853027689450E+02
0.239019455015011E+02
0.245856991106885E+02
0.252290503042005E+02
0.258245097253509E+02
0.263647577873552E+02
0.268428133751628E+02
0.272522173284334E+02
0.275872205943237E+02
0.278429656688043E+02
0.280156496078326E+02
0.281026575740617E+02
0.193868459657505E+02
0.201600109583460E+02
0.209352092594051E+02
0.217059659917510E+02
0.224655416923561E+02
0.232069348856730E+02
0.239229086796676E+02
0.246060459776791E+02
0.252488358288461E+02
0.258437909268837E+02
0.263835934989486E+02
0.268612640397768E+02
0.272703448071936E+02
0.276050879716644E+02
0.278606370435589E+02
0.280331898647745E+02
0.281201321355071E+02
0.194636191315121E+02
0.202341575125596E+02
0.210068279243875E+02
0.217751713398835E+02
0.225324616679735E+02
0.232717087017388E+02
0.239856850862609E+02
0.246669818723161E+02
0.253080951585516E+02
0.259015438192833E+02
0.264400155544392E+02
0.269165357184776E+02
0.273246508518660E+02
0.276586168197336E+02
0.279135801961524E+02
0.280857411965749E+02
0.281724871444619E+02
0.195909625092275E+02
0.203571704057170E+02
0.211256718458582E+02
0.218900340467907E+02
0.226435531097710E+02
0.233792575788581E+02
0.240899360143344E+02
0.247681931027273E+02
0.254065367730954E+02
0.259974962959881E+02
0.265337685930745E+02
0.270083872170209E+02
0.274149059375598E+02
0.277475868580723E+02
0.280015817255273E+02
0.281730947625117E+02
0.282595160325458E+02
0.197679685421870E+02
0.205282111640320E+02
0.212909672452222E+02
0.220498403846603E+02
0.227981575532687E+02
0.235289734786900E+02
0.242350990376573E+02
0.249091581174633E+02
0.255436753711532E+02
0.261311948145391E+02
0.266644264814202E+02
0.271364156004570E+02
0.275407262467047E+02
0.278716294193076E+02
0.281242842418372E+02
0.282949006501480E+02
0.283808726136713E+02
0.199933861158331E+02
0.207461220625513E+02
0.215016439313598E+02
0.222536014853134E+02
0.229953610390160E+02
0.237200108578321E+02
0.244203905555144E+02
0.250891488765132E+02
0.257188322315386E+02
0.263020038992515E+02
0.268313910961032E+02
0.273000543827669E+02
0.277015713817231E+02
0.280302247917654E+02
0.282811834383100E+02
0.284506647699604E+02
0.285360678910376E+02
0.202656375090633E+02
0.210094400010649E+02
0.217563463648125E+02
0.225000618605356E+02
0.232340003544379E+02
0.239512908887116E+02
0.246448082383581E+02
0.253072317529202E+02
0.259311347859169E+02
0.265091045835416E+02
0.270338898179196E+02
0.274985702395216E+02
0.278967404490841E+02
0.282226978156913E+02
0.284716233304877E+02
0.286397438608608E+02
0.287244649470829E+02
0.205828368341431E+02
0.213164113249931E+02
0.220534451676273E+02
0.227877079142242E+02
0.235126688591154E+02
0.242215049000413E+02
0.249071323719871E+02
0.255622670525204E+02
0.261795145673568E+02
0.267514910212505E+02
0.272709710208667E+02
0.277310575715978E+02
0.281253658783999E+02
0.284482111243035E+02
0.286947890741797E+02
0.288613380310989E+02
0.289452713473735E+02
0.209428078492641E+02
0.216650056878018E+02
0.223910473685761E+02
0.231147749097889E+02
0.238297205116196E+02
0.245291157913525E+02
0.252059249738964E+02
0.258529061285091E+02
0.264627025996776E+02
0.270279644066461E+02
0.275414967582028E+02
0.279964301733119E+02
0.283864042710396E+02
0.287057553559771E+02
0.289496967116774E+02
0.291144801992900E+02
0.291975284306873E+02
0.213430989760153E+02
0.220529270088296E+02
0.227670036393611E+02
0.234792508301275E+02
0.241832706972646E+02
0.248723561640986E+02
0.255395255495097E+02
0.261775850670449E+02
0.267792212968581E+02
0.273371233512830E+02
0.278441318597314E+02
0.282934092734538E+02
0.286786235903270E+02
0.289941356834048E+02
0.292351792167663E+02
0.293980218222591E+02
0.294800968799637E+02
0.217809935179729E+02
0.224776197367232E+02
0.231789109271551E+02
0.238788757116449E+02
0.245711925956202E+02
0.252492220474309E+02
0.259060424884685E+02
0.265345140500380E+02
0.271273720697114E+02
0.276773499922697E+02
0.281773287796718E+02
0.286205073419489E+02
0.290005861289553E+02
0.293119541286467E+02
0.295498683317969E+02
0.297106144189017E+02
0.297916380912064E+02
0.222535134644988E+02
0.229362689937272E+02
0.236241092334407E+02
0.243111353603216E+02
0.249911081373207E+02
0.256574613937138E+02
0.263033393863171E+02
0.269216617763864E+02
0.275052181036723E+02
0.280467913660633E+02
0.285393077882073E+02
0.289760073038681E+02
0.293506269344736E+02
0.296575873753180E+02
0.298921719303112E+02
0.300506866381312E+02
0.301305910956110E+02
0.227574158693466E+02
0.234257937462472E+02
0.240996718273885E+02
0.247732488676037E+02
0.254403730842530E+02
0.260945569812746E+02
0.267290160201279E+02
0.273367347495723E+02
0.279105621840548E+02
0.284433359824801E+02
0.289280324904170E+02
0.293579371849411E+02
0.297268277495859E+02
0.300291601599606E+02
0.302602470058093E+02
0.304164169836376E+02
0.304951451536536E+02
0.232891815939686E+02
0.239428329031632E+02
0.246023888978824E+02
0.252621500236233E+02
0.259160564147420E+02
0.265577039809798E+02
0.271803843008107E+02
0.277771518121128E+02
0.283409199991358E+02
0.288645860717914E+02
0.293411811811790E+02
0.297640407266377E+02
0.301269870290460E+02
0.304245148227984E+02
0.306519688803272E+02
0.308057027979508E+02
0.308832086279896E+02
0.238449971594501E+02
0.244837251483095E+02
0.251287455084164E+02
0.257744635448132E+02
0.264149149785503E+02
0.270437831941132E+02
0.276544402472422E+02
0.282400150048618E+02
0.287934900273649E+02
0.293078266352553E+02
0.297761151865131E+02
0.301917451377841E+02
0.305485872133169E+02
0.308411782082302E+02
0.310648978305932E+02
0.312161267084045E+02
0.312923753401442E+02
0.244207314985044E+02
0.250444843112320E+02
0.256748956710141E+02
0.263064779432712E+02
0.269333652592311E+02
0.275493318081412E+02
0.281478338366477E+02
0.287220786122176E+02
0.292651218752031E+02
0.297699931699266E+02
0.302298460655561E+02
0.306381278594046E+02
0.309887611374769E+02
0.312763277947639E+02
0.314962450122542E+02
0.316449224159556E+02
0.317198902921586E+02
0.250119104606952E+02
0.256207730953509E+02
0.262366353271777E+02
0.268541177975340E+02
0.274674549777654E+02
0.280705143809936E+02
0.286568394208020E+02
0.292197190638353E+02
0.297522857191740E+02
0.302476407061950E+02
0.306990042983076E+02
0.310998849564308E+02
0.314442601793388E+02
0.317267596505486E+02
0.319428402724193E+02
0.320889424131373E+02
0.321626173374769E+02
0.193611934175352E+02
0.201352387174742E+02
0.209112841116707E+02
0.216828494222802E+02
0.224431907195809E+02
0.231853027689450E+02
0.239019455015011E+02
0.245856991106885E+02
0.252290503042005E+02
0.258245097253509E+02
0.263647577873552E+02
0.268428133751628E+02
0.272522173284334E+02
0.275872205943237E+02
0.278429656688043E+02
0.280156496078326E+02
0.281026575740617E+02
0.193868459657505E+02
0.201600109583460E+02
0.209352092594051E+02
0.217059659917510E+02
0.224655416923561E+02
0.232069348856730E+02
0.239229086796676E+02
0.246060459776791E+02
0.252488358288461E+02
0.258437909268837E+02
0.263835934989486E+02
0.268612640397768E+02
0.272703448071936E+02
0.276050879716644E+02
0.278606370435589E+02
0.280331898647745E+02
0.281201321355071E+02
0.194636191315121E+02
0.202341575125596E+02
0.210068279243875E+02
0.217751713398835E+02
0.225324616679735E+02
0.232717087017388E+02
0.239856850862609E+02
0.246669818723161E+02
0.253080951585516E+02
0.259015438192833E+02
0.264400155544392E+02
0.269165357184776E+02
0.273246508518660E+02
0.276586168197336E+02
0.279135801961524E+02
0.280857411965749E+02
0.281724871444619E+02
0.195909625092275E+02
0.203571704057170E+02
0.211256718458582E+02
0.218900340467907E+02
0.226435531097710E+02
0.233792575788581E+02
0.240899360143344E+02
0.247681931027273E+02
0.254065367730954E+02
0.259974962959881E+02
0.265337685930745E+02
0.270083872170209E+02
0.274149059375598E+02
0.277475868580723E+02
0.280015817255273E+02
0.281730947625117E+02
0.282595160325458E+02
0.197679685421870E+02
0.205282111640320E+02
0.212909672452222E+02
0.220498403846603E+02
0.227981575532687E+02
0.235289734786900E+02
0.242350990376573E+02
0.249091581174633E+02
0.255436753711532E+02
0.261311948145391E+02
0.266644264814202E+02
0.271364156004570E+02
0.275407262467047E+02
0.278716294193076E+02
0.281242842418372E+02
0.282949006501480E+02
0.283808726136713E+02
0.199933861158331E+02
0.207461220625513E+02
0.215016439313598E+02
0.222536014853134E+02
0.229953610390160E+02
0.237200108578321E+02
0.244203905555144E+02
0.250891488765132E+02
0.257188322315386E+02
0.263020038992515E+02
0.268313910961032E+02
0.273000543827669E+02
0.277015713817231E+02
0.280302247917654E+02
0.282811834383100E+02
0.284506647699604E+02
0.285360678910376E+02
0.202656375090633E+02
0.210094400010649E+02
0.217563463648125E+02
0.225000618605356E+02
0.232340003544379E+02
0.239512908887116E+02
0.246448082383581E+02
0.253072317529202E+02
0.259311347859169E+02
0.265091045835416E+02
0.270338898179196E+02
0.274985702395216E+02
0.278967404490841E+02
0.282226978156913E+02
0.284716233304877E+02
0.286397438608608E+02
0.287244649470829E+02
0.205828368341431E+02
0.213164113249931E+02
0.220534451676273E+02
0.227877079142242E+02
0.235126688591154E+02
0.242215049000413E+02
0.249071323719871E+02
0.255622670525204E+02
0.261795145673568E+02
0.267514910212505E+02
0.272709710208667E+02
0.277310575715978E+02
0.281253658783999E+02
0.284482111243035E+02
0.286947890741797E+02
0.288613380310989E+02
0.289452713473735E+02
0.209428078492641E+02
0.216650056878018E+02
0.223910473685761E+02
0.231147749097889E+02
0.238297205116196E+02
0.245291157913525E+02
0.252059249738964E+02
0.258529061285091E+02
0.264627025996776E+02
0.270279644066461E+02
0.275414967582028E+02
0.279964301733119E+02
0.283864042710396E+02
0.287057553559771E+02
0.289496967116774E+02
0.291144801992900E+02
0.291975284306873E+02
0.213430989760153E+02
0.220529270088296E+02
0.227670036393611E+02
0.234792508301275E+02
0.241832706972646E+02
0.248723561640986E+02
0.255395255495097E+02
0.261775850670449E+02
0.267792212968581E+02
0.273371233512830E+02
0.278441318597314E+02
0.282934092734538E+02
0.286786235903270E+02
0.289941356834048E+02
0.292351792167663E+02
0.293980218222591E+02
0.294800968799637E+02
0.217809935179729E+02
0.224776197367232E+02
0.231789109271551E+02
0.238788757116449E+02
0.245711925956202E+02
0.252492220474309E+02
0.259060424884685E+02
0.265345140500380E+02
0.271273720697114E+02
0.276773499922697E+02
0.281773287796718E+02
0.286205073419489E+02
0.290005861289553E+02
0.293119541286467E+02
0.295498683317969E+02
0.297106144189017E+02
0.297916380912064E+02
0.222535134644988E+02
0.229362689937272E+02
0.236241092334407E+02
0.243111353603216E+02
0.249911081373207E+02
0.256574613937138E+02
0.263033393863171E+02
0.269216617763864E+02
0.275052181036723E+02
0.280467913660633E+02
0.285393077882073E+02
0.289760073038681E+02
0.293506269344736E+02
0.296575873753180E+02
0.298921719303112E+02
0.300506866381312E+02
0.301305910956110E+02
0.227574158693466E+02
0.234257937462472E+02
0.240996718273885E+02
0.247732488676037E+02
0.254403730842530E+02
0.260945569812746E+02
0.267290160201279E+02
0.273367347495723E+02
0.279105621840548E+02
0.284433359824801E+02
0.289280324904170E+02
0.293579371849411E+02
0.297268277495859E+02
0.300291601599606E+02
0.302602470058093E+02
0.304164169836376E+02
0.304951451536536E+02
0.232891815939686E+02
0.239428329031632E+02
0.246023888978824E+02
0.252621500236233E+02
0.259160564147420E+02
0.265577039809798E+02
0.271803843008107E+02
0.277771518121128E+02
0.283409199991358E+02
0.288645860717914E+02
0.293411811811790E+02
0.297640407266377E+02
0.301269870290460E+02
0.304245148227984E+02
0.306519688803272E+02
0.308057027979508E+02
0.308832086279896E+02
0.238449971594501E+02
0.244837251483095E+02
0.251287455084164E+02
0.257744635448132E+02
0.264149149785503E+02
0.270437831941132E+02
0.276544402472422E+02
0.282400150048618E+02
0.287934900273649E+02
0.293078266352553E+02
0.297761151865131E+02
0.301917451377841E+02
0.305485872133169E+02
0.308411782082302E+02
0.310648978305932E+02
0.312161267084045E+02
0.312923753401442E+02
0.244207314985044E+02
0.250444843112320E+02
0.256748956710141E+02
0.263064779432712E+02
0.269333652592311E+02
0.275493318081412E+02
0.281478338366477E+02
0.287220786122176E+02
0.292651218752031E+02
0.297699931699266E+02
0.302298460655561E+02
0.306381278594046E+02
0.309887611374769E+02
0.312763277947639E+02
0.314962450122542E+02
0.316449224159556E+02
0.317198902921586E+02
0.250119104606952E+02
0.256207730953509E+02
0.262366353271777E+02
0.268541177975340E+02
0.274674549777654E+02
0.280705143809936E+02
0.286568394208020E+02
0.292197190638353E+02
0.297522857191740E+02
0.302476407061950E+02
0.306990042983076E+02
0.310998849564308E+02
0.314442601793388E+02
0.317267596505486E+02
0.319428402724193E+02
0.320889424131373E+02
0.321626173374769E+02
0.193611934175352E+02
0.201352387174742E+02
0.209112841116707E+02
0.216828494222802E+02
0.224431907195809E+02
0.231853027689450E+02
0.239019455015011E+02
0.245856991106885E+02
0.252290503042005E+02
0.258245097253509E+02
0.263647577873552E+02
0.268428133751628E+02
0.272522173284334E+02
0.275872205943237E+02
0.278429656688043E+02
0.280156496078326E+02
0.281026575740617E+02
0.193868459657505E+02
0.201600109583460E+02
0.209352092594051E+02
0.217059659917510E+02
0.224655416923561E+02
0.232069348856730E+02
0.239229086796676E+02
0.246060459776791E+02
0.252488358288461E+02
0.258437909268837E+02
0.263835934989486E+02
0.268612640397768E+02
0.272703448071936E+02
0.276050879716644E+02
0.278606370435589E+02
0.280331898647745E+02
0.281201321355071E+02
0.194636191315121E+02
0.202341575125596E+02
0.210068279243875E+02
0.217751713398835E+02
0.225324616679735E+02
0.232717087017388E+02
0.239856850862609E+02
0.246669818723161E+02
0.253080951585516E+02
0.259015438192833E+02
0.264400155544392E+02
0.269165357184776E+02
0.273246508518660E+02
0.276586168197336E+02
0.279135801961524E+02
0.280857411965749E+02
0.281724871444619E+02
0.195909625092275E+02
0.203571704057170E+02
0.211256718458582E+02
0.218900340467907E+02
0.226435531097710E+02
0.233792575788581E+02
0.240899360143344E+02
0.247681931027273E+02
0.254065367730954E+02
0.259974962959881E+02
0.265337685930745E+02
0.270083872170209E+02
0.274149059375598E+02
0.277475868580723E+02
0.280015817255273E+02
0.281730947625117E+02
0.282595160325458E+02
0.197679685421870E+02
0.205282111640320E+02
0.212909672452222E+02
0.220498403846603E+02
0.227981575532687E+02
0.235289734786900E+02
0.242350990376573E+02
0.249091581174633E+02
0.255436753711532E+02
0.261311948145391E+02
0.266644264814202E+02
0.271364156004570E+02
0.275407262467047E+02
0.278716294193076E+02
0.281242842418372E+02
0.282949006501480E+02
0.283808726136713E+02
0.199933861158331E+02
0.207461220625513E+02
0.215016439313598E+02
0.222536014853134E+02
0.229953610390160E+02
0.237200108578321E+02
0.244203905555144E+02
0.250891488765132E+02
0.257188322315386E+02
0.263020038992515E+02
0.268313910961032E+02
0.273000543827669E+02
0.277015713817231E+02
0.280302247917654E+02
0.282811834383100E+02
0.284506647699604E+02
0.285360678910376E+02
0.202656375090633E+02
0.210094400010649E+02
0.217563463648125E+02
0.225000618605356E+02
0.232340003544379E+02
0.239512908887116E+02
0.246448082383581E+02
0.253072317529202E+02
0.259311347859169E+02
0.265091045835416E+02
0.270338898179196E+02
0.274985702395216E+02
0.278967404490841E+02
0.282226978156913E+02
0.284716233304877E+02
0.286397438608608E+02
0.287244649470829E+02
0.205828368341431E+02
0.213164113249931E+02
0.220534451676273E+02
0.227877079142242E+02
0.235126688591154E+02
0.242215049000413E+02
0.249071323719871E+02
0.255622670525204E+02
0.261795145673568E+02
0.267514910212505E+02
0.272709710208667E+02
0.277310575715978E+02
0.281253658783999E+02
0.284482111243035E+02
0.286947890741797E+02
0.288613380310989E+02
0.289452713473735E+02
0.209428078492641E+02
0.216650056878018E+02
0.223910473685761E+02
0.231147749097889E+02
0.238297205116196E+02
0.245291157913525E+02
0.252059249738964E+02
0.258529061285091E+02
0.264627025996776E+02
0.270279644066461E+02
0.275414967582028E+02
0.279964301733119E+02
0.283864042710396E+02
0.287057553559771E+02
0.289496967116774E+02
0.291144801992900E+02
0.291975284306873E+02
0.213430989760153E+02
0.220529270088296E+02
0.227670036393611E+02
0.234792508301275E+02
0.241832706972646E+02
0.248723561640986E+02
0.255395255495097E+02
0.261775850670449E+02
0.267792212968581E+02
0.273371233512830E+02
0.278441318597314E+02
0.282934092734538E+02
0.286786235903270E+02
0.289941356834048E+02
0.292351792167663E+02
0.293980218222591E+02
0.294800968799637E+02
0.217809935179729E+02
0.224776197367232E+02
0.231789109271551E+02
0.238788757116449E+02
0.245711925956202E+02
0.252492220474309E+02
0.259060424884685E+02
0.265345140500380E+02
0.271273720697114E+02
0.276773499922697E+02
0.281773287796718E+02
0.286205073419489E+02
0.290005861289553E+02
0.293119541286467E+02
0.295498683317969E+02
0.297106144189017E+02
0.297916380912064E+02
0.222535134644988E+02
0.229362689937272E+02
0.236241092334407E+02
0.243111353603216E+02
0.249911081373207E+02
0.256574613937138E+02
0.263033393863171E+02
0.269216617763864E+02
0.275052181036723E+02
0.280467913660633E+02
0.285393077882073E+02
0.289760073038681E+02
0.293506269344736E+02
0.296575873753180E+02
0.298921719303112E+02
0.300506866381312E+02
0.301305910956110E+02
0.227574158693466E+02
0.234257937462472E+02
0.240996718273885E+02
0.247732488676037E+02
0.254403730842530E+02
0.260945569812746E+02
0.267290160201279E+02
0.273367347495723E+02
0.279105621840548E+02
0.284433359824801E+02
0.289280324904170E+02
0.293579371849411E+02
0.297268277495859E+02
0.300291601599606E+02
0.302602470058093E+02
0.304164169836376E+02
0.304951451536536E+02
0.232891815939686E+02
0.239428329031632E+02
0.246023888978824E+02
0.252621500236233E+02
0.259160564147420E+02
0.265577039809798E+02
0.271803843008107E+02
0.277771518121128E+02
0.283409199991358E+02
0.288645860717914E+02
0.293411811811790E+02
0.297640407266377E+02
0.301269870290460E+02
0.304245148227984E+02
0.306519688803272E+02
0.308057027979508E+02
0.308832086279896E+02
0.238449971594501E+02
0.244837251483095E+02
0.251287455084164E+02
0.257744635448132E+02
0.264149149785503E+02
0.270437831941132E+02
0.276544402472422E+02
0.282400150048618E+02
0.287934900273649E+02
0.293078266352553E+02
0.297761151865131E+02
0.301917451377841E+02
0.305485872133169E+02
0.308411782082302E+02
0.310648978305932E+02
0.312161267084045E+02
0.312923753401442E+02
0.244207314985044E+02
0.250444843112320E+02
0.256748956710141E+02
0.263064779432712E+02
0.269333652592311E+02
0.275493318081412E+02
0.281478338366477E+02
0.287220786122176E+02
0.292651218752031E+02
0.297699931699266E+02
0.302298460655561E+02
0.306381278594046E+02
0.309887611374769E+02
0.312763277947639E+02
0.314962450122542E+02
0.316449224159556E+02
0.317198902921586E+02
0.250119104606952E+02
0.256207730953509E+02
0.262366353271777E+02
0.268541177975340E+02
0.274674549777654E+02
0.280705143809936E+02
0.286568394208020E+02
0.292197190638353E+02
0.297522857191740E+02
0.302476407061950E+02
0.306990042983076E+02
0.310998849564308E+02
0.314442601793388E+02
0.317267596505486E+02
0.319428402724193E+02
0.320889424131373E+02
0.321626173374769E+02
0.193611934175352E+02
0.201352387174742E+02
0.209112841116707E+02
0.216828494222802E+02
0.224431907195809E+02
0.231853027689450E+02
0.239019455015011E+02
0.245856991106885E+02
0.252290503042005E+02
0.258245097253509E+02
0.263647577873552E+02
0.268428133751628E+02
0.272522173284334E+02
0.275872205943237E+02
0.278429656688043E+02
0.280156496078326E+02
0.281026575740617E+02
0.193868459657505E+02
0.201600109583460E+02
0.209352092594051E+02
0.217059659917510E+02
0.224655416923561E+02
0.232069348856730E+02
0.239229086796676E+02
0.246060459776791E+02
0.252488358288461E+02
0.258437909268837E+02
0.263835934989486E+02
0.268612640397768E+02
0.272703448071936E+02
0.276050879716644E+02
0.278606370435589E+02
0.280331898647745E+02
0.281201321355071E+02
0.194636191315121E+02
0.202341575125596E+02
0.210068279243875E+02
0.217751713398835E+02
0.225324616679735E+02
0.232717087017388E+02
0.239856850862609E+02
0.246669818723161E+02
0.253080951585516E+02
0.259015438192833E+02
0.264400155544392E+02
0.269165357184776E+02
0.273246508518660E+02
0.276586168197336E+02
0.279135801961524E+02
0.280857411965749E+02
0.281724871444619E+02
0.195909625092275E+02
0.203571704057170E+02
0.211256718458582E+02
0.218900340467907E+02
0.226435531097710E+02
0.233792575788581E+02
0.240899360143344E+02
0.247681931027273E+02
0.254065367730954E+02
0.259974962959881E+02
0.265337685930745E+02
0.270083872170209E+02
0.274149059375598E+02
0.277475868580723E+02
0.280015817255273E+02
0.281730947625117E+02
0.282595160325458E+02
0.197679685421870E+02
0.205282111640320E+02
0.212909672452222E+02
0.220498403846603E+02
0.227981575532687E+02
0.235289734786900E+02
0.242350990376573E+02
0.249091581174633E+02
0.255436753711532E+02
0.261311948145391E+02
0.266644264814202E+02
0.271364156004570E+02
0.275407262467047E+02
0.278716294193076E+02
0.281242842418372E+02
0.282949006501480E+02
0.283808726136713E+02
0.199933861158331E+02
0.207461220625513E+02
0.215016439313598E+02
0.222536014853134E+02
0.229953610390160E+02
0.237200108578321E+02
0.244203905555144E+02
0.250891488765132E+02
0.257188322315386E+02
0.263020038992515E+02
0.268313910961032E+02
0.273000543827669E+02
0.277015713817231E+02
0.280302247917654E+02
0.282811834383100E+02
0.284506647699604E+02
0.285360678910376E+02
0.202656375090633E+02
0.210094400010649E+02
0.217563463648125E+02
0.225000618605356E+02
0.232340003544379E+02
0.239512908887116E+02
0.246448082383581E+02
0.253072317529202E+02
0.259311347859169E+02
0.265091045835416E+02
0.270338898179196E+02
0.274985702395216E+02
0.278967404490841E+02
0.282226978156913E+02
0.284716233304877E+02
0.286397438608608E+02
0.287244649470829E+02
0.205828368341431E+02
0.213164113249931E+02
0.220534451676273E+02
0.227877079142242E+02
0.235126688591154E+02
0.242215049000413E+02
0.249071323719871E+02
0.255622670525204E+02
0.261795145673568E+02
0.267514910212505E+02
0.272709710208667E+02
0.277310575715978E+02
0.281253658783999E+02
0.284482111243035E+02
0.286947890741797E+02
0.288613380310989E+02
0.289452713473735E+02
0.209428078492641E+02
0.216650056878018E+02
0.223910473685761E+02
0.231147749097889E+02
0.238297205116196E+02
0.245291157913525E+02
0.252059249738964E+02
0.258529061285091E+02
0.264627025996776E+02
0.270279644066461E+02
0.275414967582028E+02
0.279964301733119E+02
0.283864042710396E+02
0.287057553559771E+02
0.289496967116774E+02
0.291144801992900E+02
0.291975284306873E+02
0.213430989760153E+02
0.220529270088296E+02
0.227670036393611E+02
0.234792508301275E+02
0.241832706972646E+02
0.248723561640986E+02
0.255395255495097E+02
0.261775850670449E+02
0.267792212968581E+02
0.273371233512830E+02
0.278441318597314E+02
0.282934092734538E+02
0.286786235903270E+02
0.289941356834048E+02
0.292351792167663E+02
0.293980218222591E+02
0.294800968799637E+02
0.217809935179729E+02
0.224776197367232E+02
0.231789109271551E+02
0.238788757116449E+02
0.245711925956202E+02
0.252492220474309E+02
0.259060424884685E+02
0.265345140500380E+02
0.271273720697114E+02
0.276773499922697E+02
0.281773287796718E+02
0.286205073419489E+02
0.290005861289553E+02
0.293119541286467E+02
0.295498683317969E+02
0.297106144189017E+02
0.297916380912064E+02
0.222535134644988E+02
0.229362689937272E+02
0.236241092334407E+02
0.243111353603216E+02
0.249911081373207E+02
0.256574613937138E+02
0.263033393863171E+02
0.269216617763864E+02
0.275052181036723E+02
0.280467913660633E+02
0.285393077882073E+02
0.289760073038681E+02
0.293506269344736E+02
0.296575873753180E+02
0.298921719303112E+02
0.300506866381312E+02
0.301305910956110E+02
0.227574158693466E+02
0.234257937462472E+02
0.240996718273885E+02
0.247732488676037E+02
0.254403730842530E+02
0.260945569812746E+02
0.267290160201279E+02
0.273367347495723E+02
0.279105621840548E+02
0.284433359824801E+02
0.289280324904170E+02
0.293579371849411E+02
0.297268277495859E+02
0.300291601599606E+02
0.302602470058093E+02
0.304164169836376E+02
0.304951451536536E+02
0.232891815939686E+02
0.239428329031632E+02
0.246023888978824E+02
0.252621500236233E+02
0.259160564147420E+02
0.265577039809798E+02
0.271803843008107E+02
0.277771518121128E+02
0.283409199991358E+02
0.288645860717914E+02
0.293411811811790E+02
0.297640407266377E+02
0.301269870290460E+02
0.304245148227984E+02
0.306519688803272E+02
0.308057027979508E+02
0.308832086279896E+02
0.238449971594501E+02
0.244837251483095E+02
0.251287455084164E+02
0.257744635448132E+02
0.264149149785503E+02
0.270437831941132E+02
0.276544402472422E+02
0.282400150048618E+02
0.287934900273649E+02
0.293078266352553E+02
0.297761151865131E+02
0.301917451377841E+02
0.305485872133169E+02
0.308411782082302E+02
0.310648978305932E+02
0.312161267084045E+02
0.312923753401442E+02
0.244207314985044E+02
0.250444843112320E+02
0.256748956710141E+02
0.263064779432712E+02
0.269333652592311E+02
0.275493318081412E+02
0.281478338366477E+02
0.287220786122176E+02
0.292651218752031E+02
0.297699931699266E+02
0.302298460655561E+02
0.306381278594046E+02
0.309887611374769E+02
0.312763277947639E+02
0.314962450122542E+02
0.316449224159556E+02
0.317198902921586E+02
0.250119104606952E+02
0.256207730953509E+02
0.262366353271777E+02
0.268541177975340E+02
0.274674549777654E+02
0.280705143809936E+02
0.286568394208020E+02
0.292197190638353E+02
0.297522857191740E+02
0.302476407061950E+02
0.306990042983076E+02
0.310998849564308E+02
0.314442601793388E+02
0.317267596505486E+02
0.319428402724193E+02
0.320889424131373E+02
0.321626173374769E+02
</DataArray>
</PointData>
</Piece>
</RectilinearGrid>
</VTKFile>
