<?xml version="1.0"?>
<VTKFile type="RectilinearGrid" version="0.1" byte_order="LittleEndian">
<RectilinearGrid WholeExtent="0   63    0   63    0    3">
<Piece Extent="0   15    0   15    0    3">
<Coordinates>
<DataArray Name="x" type="Float32" format="ascii">
0.000000000000000E+00
0.100000000000000E+00
0.200000000000000E+00
0.300000000000000E+00
0.400000000000000E+00
0.500000000000000E+00
0.600000000000000E+00
0.700000000000000E+00
0.800000000000000E+00
0.900000000000000E+00
0.100000000000000E+01
0.110000000000000E+01
0.120000000000000E+01
0.130000000000000E+01
0.140000000000000E+01
0.150000000000000E+01
</DataArray>
<DataArray Name="y" type="Float32" format="ascii">
0.000000000000000E+00
0.100000000000000E+00
0.200000000000000E+00
0.300000000000000E+00
0.400000000000000E+00
0.500000000000000E+00
0.600000000000000E+00
0.700000000000000E+00
0.800000000000000E+00
0.900000000000000E+00
0.100000000000000E+01
0.110000000000000E+01
0.120000000000000E+01
0.130000000000000E+01
0.140000000000000E+01
0.150000000000000E+01
</DataArray>
<DataArray Name="z" type="Float32" format="ascii">
0.000000000000000E+00
0.100000000000000E+00
0.200000000000000E+00
0.300000000000000E+00
</DataArray>
</Coordinates>
<PointData Scalars="c">
<DataArray type="Float32" Name="c" format="ascii">
0.367295622477715E+02
0.366709225699815E+02
0.365547461595309E+02
0.363831965764262E+02
0.361594161912759E+02
0.358874103466041E+02
0.355719049944031E+02
0.352181867016067E+02
0.348319345096147E+02
0.344190529342069E+02
0.339855144749074E+02
0.335372185140864E+02
0.330798716179844E+02
0.326188922158241E+02
0.321593406334038E+02
0.317058736683558E+02
0.366395598738908E+02
0.365807164346199E+02
0.364641350348059E+02
0.362919842289049E+02
0.360674137027782E+02
0.357944382379818E+02
0.354777951094564E+02
0.351227838248145E+02
0.347350977086165E+02
0.343206566343267E+02
0.338854492869786E+02
0.334353918472595E+02
0.329762081153199E+02
0.325133340520342E+02
0.320518477112793E+02
0.315964237438136E+02
0.364914114193044E+02
0.364322310780427E+02
0.363149800435148E+02
0.361418350892272E+02
0.359159579398886E+02
0.356413789122329E+02
0.353228539190783E+02
0.349657037720402E+02
0.345756453147327E+02
0.341586237160828E+02
0.337206543297663E+02
0.332676810275732E+02
0.328054560349989E+02
0.323394442492063E+02
0.318747530080926E+02
0.314160864799389E+02
0.362878254309170E+02
0.362281790161374E+02
0.361100015612145E+02
0.359354811292880E+02
0.357077959827719E+02
0.354309977814468E+02
0.351098680480903E+02
0.347497568745631E+02
0.343564134393321E+02
0.339358177030988E+02
0.334940217200875E+02
0.330370074961959E+02
0.325705664358313E+02
0.321002033606120E+02
0.316310660616293E+02
0.311678995390108E+02
0.360324496528646E+02
0.359722133925809E+02
0.358528634245452E+02
0.356766019633452E+02
0.354466280032936E+02
0.351670199641990E+02
0.348425914858766E+02
0.344787293914988E+02
0.340812234399877E+02
0.336560972806342E+02
0.332094490870247E+02
0.327473088306422E+02
0.322755172526042E+02
0.317996295200211E+02
0.313248445191750E+02
0.308559589186947E+02
0.357297384105608E+02
0.356687952201753E+02
0.355480398904144E+02
0.353696913920269E+02
0.351369732701430E+02
0.348539956399652E+02
0.345256101922793E+02
0.341572472850242E+02
0.337547447996541E+02
0.333241782306894E+02
0.328717005323294E+02
0.324033987167957E+02
0.319251722820966E+02
0.314426364588553E+02
0.309610512161348E+02
0.304852751338101E+02
0.353847974475302E+02
0.353230380529936E+02
0.352006599826697E+02
0.350199012704063E+02
0.347840133963144E+02
0.344971425482063E+02
0.341641837372246E+02
0.337906169081905E+02
0.333823347903496E+02
0.329454720199569E+02
0.324862441118005E+02
0.320108033130643E+02
0.315251164384351E+02
0.310348676786458E+02
0.305453873069850E+02
0.300616053603710E+02
0.350032157214530E+02
0.349405396071535E+02
0.348163387666832E+02
0.346328722740160E+02
0.343934224465841E+02
0.341021753031665E+02
0.337640737073805E+02
0.333846524088471E+02
0.329698648021119E+02
0.325259110046809E+02
0.320590758900493E+02
0.315755841515073E+02
0.310814775181869E+02
0.305825171169674E+02
0.300841118858504E+02
0.295912720788117E+02
0.345908938550937E+02
0.345272100372244E+02
0.344010052813215E+02
0.342145613255107E+02
0.339711937111418E+02
0.336751313835252E+02
0.333313688006810E+02
0.329454998400276E+02
0.325235434039451E+02
0.320717704013634E+02
0.315965408046640E+02
0.311041579028968E+02
0.306007448960189E+02
0.300921468235539E+02
0.295838587104301E+02
0.290809789274816E+02
0.341538783414629E+02
0.340891059778187E+02
0.339607362580765E+02
0.337710748416373E+02
0.335234723440661E+02
0.332222030431062E+02
0.328723159101524E+02
0.324794673403169E+02
0.320497455683068E+02
0.315894965279109E+02
0.311051599214863E+02
0.306031226676961E+02
0.300895948954626E+02
0.295705114751437E+02
0.290514599425238E+02
0.285376337643247E+02
0.336982093385186E+02
0.336322781938515E+02
0.335016034870317E+02
0.333085156840707E+02
0.330564017813159E+02
0.327495830950772E+02
0.323931651931935E+02
0.319928694292763E+02
0.315548561575408E+02
0.310855494705251E+02
0.305914722959656E+02
0.300790990695692E+02
0.295547311742790E+02
0.290243981319944E+02
0.284937853714747E+02
0.279681874658270E+02
0.332297881347622E+02
0.331626389263218E+02
0.330295409273756E+02
0.328328499277837E+02
0.325759900725713E+02
0.322633307288548E+02
0.319000353140588E+02
0.314918916372300E+02
0.310451339254660E+02
0.305662664651508E+02
0.300618977660382E+02
0.295385925139053E+02
0.290027465237946E+02
0.284604876716555E+02
0.279176035912477E+02
0.273794949676404E+02
0.327542683346203E+02
0.326858529849733E+02
0.325502356186515E+02
0.323497975101161E+02
0.320880001989131E+02
0.317692614419964E+02
0.313988029531348E+02
0.309824795748398E+02
0.305266001514076E+02
0.300377501221293E+02
0.295226248155545E+02
0.289878807593258E+02
0.284400102372855E+02
0.278852420600495E+02
0.273294692937985E+02
0.267782027096395E+02
0.322769727184021E+02
0.322072545420248E+02
0.320690443456446E+02
0.318647487113251E+02
0.315978663239409E+02
0.312728630301494E+02
0.308950185198776E+02
0.304702543711007E+02
0.300049538246556E+02
0.295057833986148E+02
0.289795253962666E+02
0.284329286702196E+02
0.278725828918444E+02
0.273048192768878E+02
0.267356384645121E+02
0.261706642361782E+02
0.318028357725608E+02
0.317317896192763E+02
0.315909360423265E+02
0.313827064415589E+02
0.311106359390528E+02
0.307792375776187E+02
0.303938479896267E+02
0.299604543731855E+02
0.294855132412878E+02
0.289757711442390E+02
0.284380964922087E+02
0.278793298871115E+02
0.273061582280213E+02
0.267250155216958E+02
0.261420110425690E+02
0.255628834458386E+02
0.313363702185037E+02
0.312639825911079E+02
0.311204582458639E+02
0.309082526279081E+02
0.306309361732254E+02
0.302930676894631E+02
0.299000390695010E+02
0.294579012711677E+02
0.289731821275371E+02
0.284527062784898E+02
0.279034264222055E+02
0.273322733407262E+02
0.267460299760436E+02
0.261512324650824E+02
0.255540987197905E+02
0.249604830665794E+02
0.367295622477715E+02
0.366709225699815E+02
0.365547461595309E+02
0.363831965764262E+02
0.361594161912759E+02
0.358874103466041E+02
0.355719049944031E+02
0.352181867016067E+02
0.348319345096147E+02
0.344190529342069E+02
0.339855144749074E+02
0.335372185140864E+02
0.330798716179844E+02
0.326188922158241E+02
0.321593406334038E+02
0.317058736683558E+02
0.366395598738908E+02
0.365807164346199E+02
0.364641350348059E+02
0.362919842289049E+02
0.360674137027782E+02
0.357944382379818E+02
0.354777951094564E+02
0.351227838248145E+02
0.347350977086165E+02
0.343206566343267E+02
0.338854492869786E+02
0.334353918472595E+02
0.329762081153199E+02
0.325133340520342E+02
0.320518477112793E+02
0.315964237438136E+02
0.364914114193044E+02
0.364322310780427E+02
0.363149800435148E+02
0.361418350892272E+02
0.359159579398886E+02
0.356413789122329E+02
0.353228539190783E+02
0.349657037720402E+02
0.345756453147327E+02
0.341586237160828E+02
0.337206543297663E+02
0.332676810275732E+02
0.328054560349989E+02
0.323394442492063E+02
0.318747530080926E+02
0.314160864799389E+02
0.362878254309170E+02
0.362281790161374E+02
0.361100015612145E+02
0.359354811292880E+02
0.357077959827719E+02
0.354309977814468E+02
0.351098680480903E+02
0.347497568745631E+02
0.343564134393321E+02
0.339358177030988E+02
0.334940217200875E+02
0.330370074961959E+02
0.325705664358313E+02
0.321002033606120E+02
0.316310660616293E+02
0.311678995390108E+02
0.360324496528646E+02
0.359722133925809E+02
0.358528634245452E+02
0.356766019633452E+02
0.354466280032936E+02
0.351670199641990E+02
0.348425914858766E+02
0.344787293914988E+02
0.340812234399877E+02
0.336560972806342E+02
0.332094490870247E+02
0.327473088306422E+02
0.322755172526042E+02
0.317996295200211E+02
0.313248445191750E+02
0.308559589186947E+02
0.357297384105608E+02
0.356687952201753E+02
0.355480398904144E+02
0.353696913920269E+02
0.351369732701430E+02
0.348539956399652E+02
0.345256101922793E+02
0.341572472850242E+02
0.337547447996541E+02
0.333241782306894E+02
0.328717005323294E+02
0.324033987167957E+02
0.319251722820966E+02
0.314426364588553E+02
0.309610512161348E+02
0.304852751338101E+02
0.353847974475302E+02
0.353230380529936E+02
0.352006599826697E+02
0.350199012704063E+02
0.347840133963144E+02
0.344971425482063E+02
0.341641837372246E+02
0.337906169081905E+02
0.333823347903496E+02
0.329454720199569E+02
0.324862441118005E+02
0.320108033130643E+02
0.315251164384351E+02
0.310348676786458E+02
0.305453873069850E+02
0.300616053603710E+02
0.350032157214530E+02
0.349405396071535E+02
0.348163387666832E+02
0.346328722740160E+02
0.343934224465841E+02
0.341021753031665E+02
0.337640737073805E+02
0.333846524088471E+02
0.329698648021119E+02
0.325259110046809E+02
0.320590758900493E+02
0.315755841515073E+02
0.310814775181869E+02
0.305825171169674E+02
0.300841118858504E+02
0.295912720788117E+02
0.345908938550937E+02
0.345272100372244E+02
0.344010052813215E+02
0.342145613255107E+02
0.339711937111418E+02
0.336751313835252E+02
0.333313688006810E+02
0.329454998400276E+02
0.325235434039451E+02
0.320717704013634E+02
0.315965408046640E+02
0.311041579028968E+02
0.306007448960189E+02
0.300921468235539E+02
0.295838587104301E+02
0.290809789274816E+02
0.341538783414629E+02
0.340891059778187E+02
0.339607362580765E+02
0.337710748416373E+02
0.335234723440661E+02
0.332222030431062E+02
0.328723159101524E+02
0.324794673403169E+02
0.320497455683068E+02
0.315894965279109E+02
0.311051599214863E+02
0.306031226676961E+02
0.300895948954626E+02
0.295705114751437E+02
0.290514599425238E+02
0.285376337643247E+02
0.336982093385186E+02
0.336322781938515E+02
0.335016034870317E+02
0.333085156840707E+02
0.330564017813159E+02
0.327495830950772E+02
0.323931651931935E+02
0.319928694292763E+02
0.315548561575408E+02
0.310855494705251E+02
0.305914722959656E+02
0.300790990695692E+02
0.295547311742790E+02
0.290243981319944E+02
0.284937853714747E+02
0.279681874658270E+02
0.332297881347622E+02
0.331626389263218E+02
0.330295409273756E+02
0.328328499277837E+02
0.325759900725713E+02
0.322633307288548E+02
0.319000353140588E+02
0.314918916372300E+02
0.310451339254660E+02
0.305662664651508E+02
0.300618977660382E+02
0.295385925139053E+02
0.290027465237946E+02
0.284604876716555E+02
0.279176035912477E+02
0.273794949676404E+02
0.327542683346203E+02
0.326858529849733E+02
0.325502356186515E+02
0.323497975101161E+02
0.320880001989131E+02
0.317692614419964E+02
0.313988029531348E+02
0.309824795748398E+02
0.305266001514076E+02
0.300377501221293E+02
0.295226248155545E+02
0.289878807593258E+02
0.284400102372855E+02
0.278852420600495E+02
0.273294692937985E+02
0.267782027096395E+02
0.322769727184021E+02
0.322072545420248E+02
0.320690443456446E+02
0.318647487113251E+02
0.315978663239409E+02
0.312728630301494E+02
0.308950185198776E+02
0.304702543711007E+02
0.300049538246556E+02
0.295057833986148E+02
0.289795253962666E+02
0.284329286702196E+02
0.278725828918444E+02
0.273048192768878E+02
0.267356384645121E+02
0.261706642361782E+02
0.318028357725608E+02
0.317317896192763E+02
0.315909360423265E+02
0.313827064415589E+02
0.311106359390528E+02
0.307792375776187E+02
0.303938479896267E+02
0.299604543731855E+02
0.294855132412878E+02
0.289757711442390E+02
0.284380964922087E+02
0.278793298871115E+02
0.273061582280213E+02
0.267250155216958E+02
0.261420110425690E+02
0.255628834458386E+02
0.313363702185037E+02
0.312639825911079E+02
0.311204582458639E+02
0.309082526279081E+02
0.306309361732254E+02
0.302930676894631E+02
0.299000390695010E+02
0.294579012711677E+02
0.289731821275371E+02
0.284527062784898E+02
0.279034264222055E+02
0.273322733407262E+02
0.267460299760436E+02
0.261512324650824E+02
0.255540987197905E+02
0.249604830665794E+02
0.367295622477715E+02
0.366709225699815E+02
0.365547461595309E+02
0.363831965764262E+02
0.361594161912759E+02
0.358874103466041E+02
0.355719049944031E+02
0.352181867016067E+02
0.348319345096147E+02
0.344190529342069E+02
0.339855144749074E+02
0.335372185140864E+02
0.330798716179844E+02
0.326188922158241E+02
0.321593406334038E+02
0.317058736683558E+02
0.366395598738908E+02
0.365807164346199E+02
0.364641350348059E+02
0.362919842289049E+02
0.360674137027782E+02
0.357944382379818E+02
0.354777951094564E+02
0.351227838248145E+02
0.347350977086165E+02
0.343206566343267E+02
0.338854492869786E+02
0.334353918472595E+02
0.329762081153199E+02
0.325133340520342E+02
0.320518477112793E+02
0.315964237438136E+02
0.364914114193044E+02
0.364322310780427E+02
0.363149800435148E+02
0.361418350892272E+02
0.359159579398886E+02
0.356413789122329E+02
0.353228539190783E+02
0.349657037720402E+02
0.345756453147327E+02
0.341586237160828E+02
0.337206543297663E+02
0.332676810275732E+02
0.328054560349989E+02
0.323394442492063E+02
0.318747530080926E+02
0.314160864799389E+02
0.362878254309170E+02
0.362281790161374E+02
0.361100015612145E+02
0.359354811292880E+02
0.357077959827719E+02
0.354309977814468E+02
0.351098680480903E+02
0.347497568745631E+02
0.343564134393321E+02
0.339358177030988E+02
0.334940217200875E+02
0.330370074961959E+02
0.325705664358313E+02
0.321002033606120E+02
0.316310660616293E+02
0.311678995390108E+02
0.360324496528646E+02
0.359722133925809E+02
0.358528634245452E+02
0.356766019633452E+02
0.354466280032936E+02
0.351670199641990E+02
0.348425914858766E+02
0.344787293914988E+02
0.340812234399877E+02
0.336560972806342E+02
0.332094490870247E+02
0.327473088306422E+02
0.322755172526042E+02
0.317996295200211E+02
0.313248445191750E+02
0.308559589186947E+02
0.357297384105608E+02
0.356687952201753E+02
0.355480398904144E+02
0.353696913920269E+02
0.351369732701430E+02
0.348539956399652E+02
0.345256101922793E+02
0.341572472850242E+02
0.337547447996541E+02
0.333241782306894E+02
0.328717005323294E+02
0.324033987167957E+02
0.319251722820966E+02
0.314426364588553E+02
0.309610512161348E+02
0.304852751338101E+02
0.353847974475302E+02
0.353230380529936E+02
0.352006599826697E+02
0.350199012704063E+02
0.347840133963144E+02
0.344971425482063E+02
0.341641837372246E+02
0.337906169081905E+02
0.333823347903496E+02
0.329454720199569E+02
0.324862441118005E+02
0.320108033130643E+02
0.315251164384351E+02
0.310348676786458E+02
0.305453873069850E+02
0.300616053603710E+02
0.350032157214530E+02
0.349405396071535E+02
0.348163387666832E+02
0.346328722740160E+02
0.343934224465841E+02
0.341021753031665E+02
0.337640737073805E+02
0.333846524088471E+02
0.329698648021119E+02
0.325259110046809E+02
0.320590758900493E+02
0.315755841515073E+02
0.310814775181869E+02
0.305825171169674E+02
0.300841118858504E+02
0.295912720788117E+02
0.345908938550937E+02
0.345272100372244E+02
0.344010052813215E+02
0.342145613255107E+02
0.339711937111418E+02
0.336751313835252E+02
0.333313688006810E+02
0.329454998400276E+02
0.325235434039451E+02
0.320717704013634E+02
0.315965408046640E+02
0.311041579028968E+02
0.306007448960189E+02
0.300921468235539E+02
0.295838587104301E+02
0.290809789274816E+02
0.341538783414629E+02
0.340891059778187E+02
0.339607362580765E+02
0.337710748416373E+02
0.335234723440661E+02
0.332222030431062E+02
0.328723159101524E+02
0.324794673403169E+02
0.320497455683068E+02
0.315894965279109E+02
0.311051599214863E+02
0.306031226676961E+02
0.300895948954626E+02
0.295705114751437E+02
0.290514599425238E+02
0.285376337643247E+02
0.336982093385186E+02
0.336322781938515E+02
0.335016034870317E+02
0.333085156840707E+02
0.330564017813159E+02
0.327495830950772E+02
0.323931651931935E+02
0.319928694292763E+02
0.315548561575408E+02
0.310855494705251E+02
0.305914722959656E+02
0.300790990695692E+02
0.295547311742790E+02
0.290243981319944E+02
0.284937853714747E+02
0.279681874658270E+02
0.332297881347622E+02
0.331626389263218E+02
0.330295409273756E+02
0.328328499277837E+02
0.325759900725713E+02
0.322633307288548E+02
0.319000353140588E+02
0.314918916372300E+02
0.310451339254660E+02
0.305662664651508E+02
0.300618977660382E+02
0.295385925139053E+02
0.290027465237946E+02
0.284604876716555E+02
0.279176035912477E+02
0.273794949676404E+02
0.327542683346203E+02
0.326858529849733E+02
0.325502356186515E+02
0.323497975101161E+02
0.320880001989131E+02
0.317692614419964E+02
0.313988029531348E+02
0.309824795748398E+02
0.305266001514076E+02
0.300377501221293E+02
0.295226248155545E+02
0.289878807593258E+02
0.284400102372855E+02
0.278852420600495E+02
0.273294692937985E+02
0.267782027096395E+02
0.322769727184021E+02
0.322072545420248E+02
0.320690443456446E+02
0.318647487113251E+02
0.315978663239409E+02
0.312728630301494E+02
0.308950185198776E+02
0.304702543711007E+02
0.300049538246556E+02
0.295057833986148E+02
0.289795253962666E+02
0.284329286702196E+02
0.278725828918444E+02
0.273048192768878E+02
0.267356384645121E+02
0.261706642361782E+02
0.318028357725608E+02
0.317317896192763E+02
0.315909360423265E+02
0.313827064415589E+02
0.311106359390528E+02
0.307792375776187E+02
0.303938479896267E+02
0.299604543731855E+02
0.294855132412878E+02
0.289757711442390E+02
0.284380964922087E+02
0.278793298871115E+02
0.273061582280213E+02
0.267250155216958E+02
0.261420110425690E+02
0.255628834458386E+02
0.313363702185037E+02
0.312639825911079E+02
0.311204582458639E+02
0.309082526279081E+02
0.306309361732254E+02
0.302930676894631E+02
0.299000390695010E+02
0.294579012711677E+02
0.289731821275371E+02
0.284527062784898E+02
0.279034264222055E+02
0.273322733407262E+02
0.267460299760436E+02
0.261512324650824E+02
0.255540987197905E+02
0.249604830665794E+02
0.367295622477715E+02
0.366709225699815E+02
0.365547461595309E+02
0.363831965764262E+02
0.361594161912759E+02
0.358874103466041E+02
0.355719049944031E+02
0.352181867016067E+02
0.348319345096147E+02
0.344190529342069E+02
0.339855144749074E+02
0.335372185140864E+02
0.330798716179844E+02
0.326188922158241E+02
0.321593406334038E+02
0.317058736683558E+02
0.366395598738908E+02
0.365807164346199E+02
0.364641350348059E+02
0.362919842289049E+02
0.360674137027782E+02
0.357944382379818E+02
0.354777951094564E+02
0.351227838248145E+02
0.347350977086165E+02
0.343206566343267E+02
0.338854492869786E+02
0.334353918472595E+02
0.329762081153199E+02
0.325133340520342E+02
0.320518477112793E+02
0.315964237438136E+02
0.364914114193044E+02
0.364322310780427E+02
0.363149800435148E+02
0.361418350892272E+02
0.359159579398886E+02
0.356413789122329E+02
0.353228539190783E+02
0.349657037720402E+02
0.345756453147327E+02
0.341586237160828E+02
0.337206543297663E+02
0.332676810275732E+02
0.328054560349989E+02
0.323394442492063E+02
0.318747530080926E+02
0.314160864799389E+02
0.362878254309170E+02
0.362281790161374E+02
0.361100015612145E+02
0.359354811292880E+02
0.357077959827719E+02
0.354309977814468E+02
0.351098680480903E+02
0.347497568745631E+02
0.343564134393321E+02
0.339358177030988E+02
0.334940217200875E+02
0.330370074961959E+02
0.325705664358313E+02
0.321002033606120E+02
0.316310660616293E+02
0.311678995390108E+02
0.360324496528646E+02
0.359722133925809E+02
0.358528634245452E+02
0.356766019633452E+02
0.354466280032936E+02
0.351670199641990E+02
0.348425914858766E+02
0.344787293914988E+02
0.340812234399877E+02
0.336560972806342E+02
0.332094490870247E+02
0.327473088306422E+02
0.322755172526042E+02
0.317996295200211E+02
0.313248445191750E+02
0.308559589186947E+02
0.357297384105608E+02
0.356687952201753E+02
0.355480398904144E+02
0.353696913920269E+02
0.351369732701430E+02
0.348539956399652E+02
0.345256101922793E+02
0.341572472850242E+02
0.337547447996541E+02
0.333241782306894E+02
0.328717005323294E+02
0.324033987167957E+02
0.319251722820966E+02
0.314426364588553E+02
0.309610512161348E+02
0.304852751338101E+02
0.353847974475302E+02
0.353230380529936E+02
0.352006599826697E+02
0.350199012704063E+02
0.347840133963144E+02
0.344971425482063E+02
0.341641837372246E+02
0.337906169081905E+02
0.333823347903496E+02
0.329454720199569E+02
0.324862441118005E+02
0.320108033130643E+02
0.315251164384351E+02
0.310348676786458E+02
0.305453873069850E+02
0.300616053603710E+02
0.350032157214530E+02
0.349405396071535E+02
0.348163387666832E+02
0.346328722740160E+02
0.343934224465841E+02
0.341021753031665E+02
0.337640737073805E+02
0.333846524088471E+02
0.329698648021119E+02
0.325259110046809E+02
0.320590758900493E+02
0.315755841515073E+02
0.310814775181869E+02
0.305825171169674E+02
0.300841118858504E+02
0.295912720788117E+02
0.345908938550937E+02
0.345272100372244E+02
0.344010052813215E+02
0.342145613255107E+02
0.339711937111418E+02
0.336751313835252E+02
0.333313688006810E+02
0.329454998400276E+02
0.325235434039451E+02
0.320717704013634E+02
0.315965408046640E+02
0.311041579028968E+02
0.306007448960189E+02
0.300921468235539E+02
0.295838587104301E+02
0.290809789274816E+02
0.341538783414629E+02
0.340891059778187E+02
0.339607362580765E+02
0.337710748416373E+02
0.335234723440661E+02
0.332222030431062E+02
0.328723159101524E+02
0.324794673403169E+02
0.320497455683068E+02
0.315894965279109E+02
0.311051599214863E+02
0.306031226676961E+02
0.300895948954626E+02
0.295705114751437E+02
0.290514599425238E+02
0.285376337643247E+02
0.336982093385186E+02
0.336322781938515E+02
0.335016034870317E+02
0.333085156840707E+02
0.330564017813159E+02
0.327495830950772E+02
0.323931651931935E+02
0.319928694292763E+02
0.315548561575408E+02
0.310855494705251E+02
0.305914722959656E+02
0.300790990695692E+02
0.295547311742790E+02
0.290243981319944E+02
0.284937853714747E+02
0.279681874658270E+02
0.332297881347622E+02
0.331626389263218E+02
0.330295409273756E+02
0.328328499277837E+02
0.325759900725713E+02
0.322633307288548E+02
0.319000353140588E+02
0.314918916372300E+02
0.310451339254660E+02
0.305662664651508E+02
0.300618977660382E+02
0.295385925139053E+02
0.290027465237946E+02
0.284604876716555E+02
0.279176035912477E+02
0.273794949676404E+02
0.327542683346203E+02
0.326858529849733E+02
0.325502356186515E+02
0.323497975101161E+02
0.320880001989131E+02
0.317692614419964E+02
0.313988029531348E+02
0.309824795748398E+02
0.305266001514076E+02
0.300377501221293E+02
0.295226248155545E+02
0.289878807593258E+02
0.284400102372855E+02
0.278852420600495E+02
0.273294692937985E+02
0.267782027096395E+02
0.322769727184021E+02
0.322072545420248E+02
0.320690443456446E+02
0.318647487113251E+02
0.315978663239409E+02
0.312728630301494E+02
0.308950185198776E+02
0.304702543711007E+02
0.300049538246556E+02
0.295057833986148E+02
0.289795253962666E+02
0.284329286702196E+02
0.278725828918444E+02
0.273048192768878E+02
0.267356384645121E+02
0.261706642361782E+02
0.318028357725608E+02
0.317317896192763E+02
0.315909360423265E+02
0.313827064415589E+02
0.311106359390528E+02
0.307792375776187E+02
0.303938479896267E+02
0.299604543731855E+02
0.294855132412878E+02
0.289757711442390E+02
0.284380964922087E+02
0.278793298871115E+02
0.273061582280213E+02
0.267250155216958E+02
0.261420110425690E+02
0.255628834458386E+02
0.313363702185037E+02
0.312639825911079E+02
0.311204582458639E+02
0.309082526279081E+02
0.306309361732254E+02
0.302930676894631E+02
0.299000390695010E+02
0.294579012711677E+02
0.289731821275371E+02
0.284527062784898E+02
0.279034264222055E+02
0.273322733407262E+02
0.267460299760436E+02
0.261512324650824E+02
0.255540987197905E+02
0.249604830665794E+02
</DataArray>
</PointData>
</Piece>
</RectilinearGrid>
</VTKFile>
