<?xml version="1.0"?>
<VTKFile type="RectilinearGrid" version="0.1" byte_order="LittleEndian">
<RectilinearGrid WholeExtent="0   63    0   63    0    3">
<Piece Extent="0   15   15   31    0    3">
<Coordinates>
<DataArray Name="x" type="Float32" format="ascii">
0.000000000000000E+00
0.100000000000000E+00
0.200000000000000E+00
0.300000000000000E+00
0.400000000000000E+00
0.500000000000000E+00
0.600000000000000E+00
0.700000000000000E+00
0.800000000000000E+00
0.900000000000000E+00
0.100000000000000E+01
0.110000000000000E+01
0.120000000000000E+01
0.130000000000000E+01
0.140000000000000E+01
0.150000000000000E+01
</DataArray>
<DataArray Name="y" type="Float32" format="ascii">
0.150000000000000E+01
0.160000000000000E+01
0.170000000000000E+01
0.180000000000000E+01
0.190000000000000E+01
0.200000000000000E+01
0.210000000000000E+01
0.220000000000000E+01
0.230000000000000E+01
0.240000000000000E+01
0.250000000000000E+01
0.260000000000000E+01
0.270000000000000E+01
0.280000000000000E+01
0.290000000000000E+01
0.300000000000000E+01
0.310000000000000E+01
</DataArray>
<DataArray Name="z" type="Float32" format="ascii">
0.000000000000000E+00
0.100000000000000E+00
0.200000000000000E+00
0.300000000000000E+00
</DataArray>
</Coordinates>
<PointData Scalars="c">
<DataArray type="Float32" Name="c" format="ascii">
0.306595244988900E+02
0.305994756617454E+02
0.304802337852463E+02
0.303034879011732E+02
0.300717162972003E+02
0.297881233375530E+02
0.294565601951501E+02
0.290814332810813E+02
0.286676045617882E+02
0.282202880721412E+02
0.277449467702707E+02
0.272471934669120E+02
0.267326989465074E+02
0.262071096410345E+02
0.256759763890634E+02
0.251446949806106E+02
0.302351713668781E+02
0.301740306660112E+02
0.300526136835671E+02
0.298726266186856E+02
0.296365733281801E+02
0.293476919481571E+02
0.290098753901739E+02
0.286275795179249E+02
0.282057232143086E+02
0.277495846629892E+02
0.272646979999784E+02
0.267567540692290E+02
0.262315083908518E+02
0.256946986839701E+02
0.251519734480311E+02
0.246088322664221E+02
0.298220512105200E+02
0.297598245672994E+02
0.296362440333387E+02
0.294530324085111E+02
0.292127182935720E+02
0.289185725417556E+02
0.285745285565114E+02
0.281850902605583E+02
0.277552319643969E+02
0.272902944728946E+02
0.267958815934965E+02
0.262777607794342E+02
0.257417710058747E+02
0.251937401998788E+02
0.246394136970194E+02
0.240843943494642E+02
0.294236389079975E+02
0.293603425118442E+02
0.292346304449692E+02
0.290482413977962E+02
0.288037276751911E+02
0.285043915077509E+02
0.281542051894011E+02
0.277577188845715E+02
0.273199603500644E+02
0.268463309232329E+02
0.263425019463891E+02
0.258143153584154E+02
0.252676915389819E+02
0.247085467031695E+02
0.241427212864413E+02
0.235759199038326E+02
0.290431058207997E+02
0.289787661546593E+02
0.288509750975849E+02
0.286614863944397E+02
0.284128748252956E+02
0.281084724057839E+02
0.277522884021971E+02
0.273489170214908E+02
0.269034370368816E+02
0.264213077121234E+02
0.259082651991388E+02
0.253702231359357E+02
0.248131805160484E+02
0.242431391026579E+02
0.236660317929414E+02
0.230876624742092E+02
0.286833211884976E+02
0.286179749696005E+02
0.284881778797909E+02
0.282956977742292E+02
0.280431305162218E+02
0.277338360946772E+02
0.273718585524278E+02
0.269618336011630E+02
0.265088881978017E+02
0.260185364553283E+02
0.254965760660138E+02
0.249489889584666E+02
0.243818492442797E+02
0.238012407016454E+02
0.232131851661416E+02
0.226235823271807E+02
0.283468589725443E+02
0.282805529969678E+02
0.281488429447203E+02
0.279535097466996E+02
0.276971688200760E+02
0.273832061286764E+02
0.270156980571604E+02
0.265993189889853E+02
0.261392408756531E+02
0.256410291787416E+02
0.251105393645079E+02
0.245538176658479E+02
0.239770091509746E+02
0.233862753197680E+02
0.227877225623161E+02
0.221873419350076E+02
0.280360085051019E+02
0.279687993846989E+02
0.278352890355442E+02
0.276372703561225E+02
0.273773766752921E+02
0.270590177784420E+02
0.266862997560874E+02
0.262639325777681E+02
0.257971296899567E+02
0.252915040265705E+02
0.247529646125570E+02
0.241876174677962E+02
0.236016738337865E+02
0.230013679175707E+02
0.223928854520753E+02
0.217823034857890E+02
0.277527874553093E+02
0.276847412366804E+02
0.275495620972238E+02
0.273490537368586E+02
0.270858656640255E+02
0.267634292068862E+02
0.263858773600591E+02
0.259579523812210E+02
0.254849054460782E+02
0.249723927561142E+02
0.244263722793010E+02
0.238530048229316E+02
0.232585624441201E+02
0.226493463664601E+02
0.220316156677172E+02
0.214115271105475E+02
0.274989558395571E+02
0.274301474969237E+02
0.272934489076531E+02
0.270906733629249E+02
0.268244847493439E+02
0.264983335604679E+02
0.261163767600285E+02
0.256833854212414E+02
0.252046444591335E+02
0.246858488549648E+02
0.241330005519107E+02
0.235523097128952E+02
0.229501033296704E+02
0.223327433268092E+02
0.217065553929853E+02
0.210777688729181E+02
0.272760300465488E+02
0.272065428435631E+02
0.270684907085516E+02
0.268636952818503E+02
0.265948329754553E+02
0.262653709959693E+02
0.258794872370177E+02
0.254419779742013E+02
0.249581576866270E+02
0.244337554077632E+02
0.238748117832677E+02
0.232875805185958E+02
0.226784371899883E+02
0.220537975394583E+02
0.214200464561651E+02
0.207834779420840E+02
0.270852960971459E+02
0.270152208166818E+02
0.268759960681865E+02
0.266694505771503E+02
0.263982713918760E+02
0.260659399247432E+02
0.256766518809107E+02
0.252352250148108E+02
0.247469990443489E+02
0.242177321283613E+02
0.236534980832096E+02
0.230605880137674E+02
0.224454193183461E+02
0.218144541674909E+02
0.211741286322838E+02
0.205307927285079E+02
0.269278215923657E+02
0.268572556379508E+02
0.267170524432009E+02
0.265090465407748E+02
0.262359337019276E+02
0.259012069990165E+02
0.255090767722513E+02
0.250643784469735E+02
0.245724725360688E+02
0.240391412351483E+02
0.234704857845768E+02
0.228728282669204E+02
0.222526207871827E+02
0.216163641179939E+02
0.209705369625144E+02
0.203215360744927E+02
0.268044660048795E+02
0.267335123823618E+02
0.265925361097548E+02
0.263833762407760E+02
0.261087353411382E+02
0.257721155716516E+02
0.253777386900149E+02
0.249304539221652E+02
0.244356380413680E+02
0.238990920641616E+02
0.233269387356066E+02
0.227255244668867E+02
0.221013286627188E+02
0.214608825063778E+02
0.208106983366646E+02
0.201572098346189E+02
0.267158891300401E+02
0.266446553230135E+02
0.265031202948625E+02
0.262931263301168E+02
0.260173808517773E+02
0.256793925213928E+02
0.252833912689045E+02
0.248342362063862E+02
0.243373157663794E+02
0.237984444749129E+02
0.232237605303716E+02
0.226196278471280E+02
0.219925454940786E+02
0.213490665853297E+02
0.206957277438450E+02
0.200389893400128E+02
0.266625576275600E+02
0.265911543846762E+02
0.264492814529127E+02
0.262387830556286E+02
0.259623695314814E+02
0.256235534456173E+02
0.252265696375863E+02
0.247762831620641E+02
0.242780894645679E+02
0.237378112028131E+02
0.231615958840495E+02
0.225558179747395E+02
0.219269884082296E+02
0.212816735412022E+02
0.206264246714675E+02
0.199677183093855E+02
0.266447496553110E+02
0.265732897115645E+02
0.264313037007659E+02
0.262206364925823E+02
0.259439993977343E+02
0.256049062830479E+02
0.252075936256032E+02
0.247569284627113E+02
0.242583085804012E+02
0.237175593512418E+02
0.231408313915566E+02
0.225345026935270E+02
0.219050881563254E+02
0.212591585648896E+02
0.206032701261245E+02
0.199439047515704E+02
0.306595244988900E+02
0.305994756617454E+02
0.304802337852463E+02
0.303034879011732E+02
0.300717162972003E+02
0.297881233375530E+02
0.294565601951501E+02
0.290814332810813E+02
0.286676045617882E+02
0.282202880721412E+02
0.277449467702707E+02
0.272471934669120E+02
0.267326989465074E+02
0.262071096410345E+02
0.256759763890634E+02
0.251446949806106E+02
0.302351713668781E+02
0.301740306660112E+02
0.300526136835671E+02
0.298726266186856E+02
0.296365733281801E+02
0.293476919481571E+02
0.290098753901739E+02
0.286275795179249E+02
0.282057232143086E+02
0.277495846629892E+02
0.272646979999784E+02
0.267567540692290E+02
0.262315083908518E+02
0.256946986839701E+02
0.251519734480311E+02
0.246088322664221E+02
0.298220512105200E+02
0.297598245672994E+02
0.296362440333387E+02
0.294530324085111E+02
0.292127182935720E+02
0.289185725417556E+02
0.285745285565114E+02
0.281850902605583E+02
0.277552319643969E+02
0.272902944728946E+02
0.267958815934965E+02
0.262777607794342E+02
0.257417710058747E+02
0.251937401998788E+02
0.246394136970194E+02
0.240843943494642E+02
0.294236389079975E+02
0.293603425118442E+02
0.292346304449692E+02
0.290482413977962E+02
0.288037276751911E+02
0.285043915077509E+02
0.281542051894011E+02
0.277577188845715E+02
0.273199603500644E+02
0.268463309232329E+02
0.263425019463891E+02
0.258143153584154E+02
0.252676915389819E+02
0.247085467031695E+02
0.241427212864413E+02
0.235759199038326E+02
0.290431058207997E+02
0.289787661546593E+02
0.288509750975849E+02
0.286614863944397E+02
0.284128748252956E+02
0.281084724057839E+02
0.277522884021971E+02
0.273489170214908E+02
0.269034370368816E+02
0.264213077121234E+02
0.259082651991388E+02
0.253702231359357E+02
0.248131805160484E+02
0.242431391026579E+02
0.236660317929414E+02
0.230876624742092E+02
0.286833211884976E+02
0.286179749696005E+02
0.284881778797909E+02
0.282956977742292E+02
0.280431305162218E+02
0.277338360946772E+02
0.273718585524278E+02
0.269618336011630E+02
0.265088881978017E+02
0.260185364553283E+02
0.254965760660138E+02
0.249489889584666E+02
0.243818492442797E+02
0.238012407016454E+02
0.232131851661416E+02
0.226235823271807E+02
0.283468589725443E+02
0.282805529969678E+02
0.281488429447203E+02
0.279535097466996E+02
0.276971688200760E+02
0.273832061286764E+02
0.270156980571604E+02
0.265993189889853E+02
0.261392408756531E+02
0.256410291787416E+02
0.251105393645079E+02
0.245538176658479E+02
0.239770091509746E+02
0.233862753197680E+02
0.227877225623161E+02
0.221873419350076E+02
0.280360085051019E+02
0.279687993846989E+02
0.278352890355442E+02
0.276372703561225E+02
0.273773766752921E+02
0.270590177784420E+02
0.266862997560874E+02
0.262639325777681E+02
0.257971296899567E+02
0.252915040265705E+02
0.247529646125570E+02
0.241876174677962E+02
0.236016738337865E+02
0.230013679175707E+02
0.223928854520753E+02
0.217823034857890E+02
0.277527874553093E+02
0.276847412366804E+02
0.275495620972238E+02
0.273490537368586E+02
0.270858656640255E+02
0.267634292068862E+02
0.263858773600591E+02
0.259579523812210E+02
0.254849054460782E+02
0.249723927561142E+02
0.244263722793010E+02
0.238530048229316E+02
0.232585624441201E+02
0.226493463664601E+02
0.220316156677172E+02
0.214115271105475E+02
0.274989558395571E+02
0.274301474969237E+02
0.272934489076531E+02
0.270906733629249E+02
0.268244847493439E+02
0.264983335604679E+02
0.261163767600285E+02
0.256833854212414E+02
0.252046444591335E+02
0.246858488549648E+02
0.241330005519107E+02
0.235523097128952E+02
0.229501033296704E+02
0.223327433268092E+02
0.217065553929853E+02
0.210777688729181E+02
0.272760300465488E+02
0.272065428435631E+02
0.270684907085516E+02
0.268636952818503E+02
0.265948329754553E+02
0.262653709959693E+02
0.258794872370177E+02
0.254419779742013E+02
0.249581576866270E+02
0.244337554077632E+02
0.238748117832677E+02
0.232875805185958E+02
0.226784371899883E+02
0.220537975394583E+02
0.214200464561651E+02
0.207834779420840E+02
0.270852960971459E+02
0.270152208166818E+02
0.268759960681865E+02
0.266694505771503E+02
0.263982713918760E+02
0.260659399247432E+02
0.256766518809107E+02
0.252352250148108E+02
0.247469990443489E+02
0.242177321283613E+02
0.236534980832096E+02
0.230605880137674E+02
0.224454193183461E+02
0.218144541674909E+02
0.211741286322838E+02
0.205307927285079E+02
0.269278215923657E+02
0.268572556379508E+02
0.267170524432009E+02
0.265090465407748E+02
0.262359337019276E+02
0.259012069990165E+02
0.255090767722513E+02
0.250643784469735E+02
0.245724725360688E+02
0.240391412351483E+02
0.234704857845768E+02
0.228728282669204E+02
0.222526207871827E+02
0.216163641179939E+02
0.209705369625144E+02
0.203215360744927E+02
0.268044660048795E+02
0.267335123823618E+02
0.265925361097548E+02
0.263833762407760E+02
0.261087353411382E+02
0.257721155716516E+02
0.253777386900149E+02
0.249304539221652E+02
0.244356380413680E+02
0.238990920641616E+02
0.233269387356066E+02
0.227255244668867E+02
0.221013286627188E+02
0.214608825063778E+02
0.208106983366646E+02
0.201572098346189E+02
0.267158891300401E+02
0.266446553230135E+02
0.265031202948625E+02
0.262931263301168E+02
0.260173808517773E+02
0.256793925213928E+02
0.252833912689045E+02
0.248342362063862E+02
0.243373157663794E+02
0.237984444749129E+02
0.232237605303716E+02
0.226196278471280E+02
0.219925454940786E+02
0.213490665853297E+02
0.206957277438450E+02
0.200389893400128E+02
0.266625576275600E+02
0.265911543846762E+02
0.264492814529127E+02
0.262387830556286E+02
0.259623695314814E+02
0.256235534456173E+02
0.252265696375863E+02
0.247762831620641E+02
0.242780894645679E+02
0.237378112028131E+02
0.231615958840495E+02
0.225558179747395E+02
0.219269884082296E+02
0.212816735412022E+02
0.206264246714675E+02
0.199677183093855E+02
0.266447496553110E+02
0.265732897115645E+02
0.264313037007659E+02
0.262206364925823E+02
0.259439993977343E+02
0.256049062830479E+02
0.252075936256032E+02
0.247569284627113E+02
0.242583085804012E+02
0.237175593512418E+02
0.231408313915566E+02
0.225345026935270E+02
0.219050881563254E+02
0.212591585648896E+02
0.206032701261245E+02
0.199439047515704E+02
0.306595244988900E+02
0.305994756617454E+02
0.304802337852463E+02
0.303034879011732E+02
0.300717162972003E+02
0.297881233375530E+02
0.294565601951501E+02
0.290814332810813E+02
0.286676045617882E+02
0.282202880721412E+02
0.277449467702707E+02
0.272471934669120E+02
0.267326989465074E+02
0.262071096410345E+02
0.256759763890634E+02
0.251446949806106E+02
0.302351713668781E+02
0.301740306660112E+02
0.300526136835671E+02
0.298726266186856E+02
0.296365733281801E+02
0.293476919481571E+02
0.290098753901739E+02
0.286275795179249E+02
0.282057232143086E+02
0.277495846629892E+02
0.272646979999784E+02
0.267567540692290E+02
0.262315083908518E+02
0.256946986839701E+02
0.251519734480311E+02
0.246088322664221E+02
0.298220512105200E+02
0.297598245672994E+02
0.296362440333387E+02
0.294530324085111E+02
0.292127182935720E+02
0.289185725417556E+02
0.285745285565114E+02
0.281850902605583E+02
0.277552319643969E+02
0.272902944728946E+02
0.267958815934965E+02
0.262777607794342E+02
0.257417710058747E+02
0.251937401998788E+02
0.246394136970194E+02
0.240843943494642E+02
0.294236389079975E+02
0.293603425118442E+02
0.292346304449692E+02
0.290482413977962E+02
0.288037276751911E+02
0.285043915077509E+02
0.281542051894011E+02
0.277577188845715E+02
0.273199603500644E+02
0.268463309232329E+02
0.263425019463891E+02
0.258143153584154E+02
0.252676915389819E+02
0.247085467031695E+02
0.241427212864413E+02
0.235759199038326E+02
0.290431058207997E+02
0.289787661546593E+02
0.288509750975849E+02
0.286614863944397E+02
0.284128748252956E+02
0.281084724057839E+02
0.277522884021971E+02
0.273489170214908E+02
0.269034370368816E+02
0.264213077121234E+02
0.259082651991388E+02
0.253702231359357E+02
0.248131805160484E+02
0.242431391026579E+02
0.236660317929414E+02
0.230876624742092E+02
0.286833211884976E+02
0.286179749696005E+02
0.284881778797909E+02
0.282956977742292E+02
0.280431305162218E+02
0.277338360946772E+02
0.273718585524278E+02
0.269618336011630E+02
0.265088881978017E+02
0.260185364553283E+02
0.254965760660138E+02
0.249489889584666E+02
0.243818492442797E+02
0.238012407016454E+02
0.232131851661416E+02
0.226235823271807E+02
0.283468589725443E+02
0.282805529969678E+02
0.281488429447203E+02
0.279535097466996E+02
0.276971688200760E+02
0.273832061286764E+02
0.270156980571604E+02
0.265993189889853E+02
0.261392408756531E+02
0.256410291787416E+02
0.251105393645079E+02
0.245538176658479E+02
0.239770091509746E+02
0.233862753197680E+02
0.227877225623161E+02
0.221873419350076E+02
0.280360085051019E+02
0.279687993846989E+02
0.278352890355442E+02
0.276372703561225E+02
0.273773766752921E+02
0.270590177784420E+02
0.266862997560874E+02
0.262639325777681E+02
0.257971296899567E+02
0.252915040265705E+02
0.247529646125570E+02
0.241876174677962E+02
0.236016738337865E+02
0.230013679175707E+02
0.223928854520753E+02
0.217823034857890E+02
0.277527874553093E+02
0.276847412366804E+02
0.275495620972238E+02
0.273490537368586E+02
0.270858656640255E+02
0.267634292068862E+02
0.263858773600591E+02
0.259579523812210E+02
0.254849054460782E+02
0.249723927561142E+02
0.244263722793010E+02
0.238530048229316E+02
0.232585624441201E+02
0.226493463664601E+02
0.220316156677172E+02
0.214115271105475E+02
0.274989558395571E+02
0.274301474969237E+02
0.272934489076531E+02
0.270906733629249E+02
0.268244847493439E+02
0.264983335604679E+02
0.261163767600285E+02
0.256833854212414E+02
0.252046444591335E+02
0.246858488549648E+02
0.241330005519107E+02
0.235523097128952E+02
0.229501033296704E+02
0.223327433268092E+02
0.217065553929853E+02
0.210777688729181E+02
0.272760300465488E+02
0.272065428435631E+02
0.270684907085516E+02
0.268636952818503E+02
0.265948329754553E+02
0.262653709959693E+02
0.258794872370177E+02
0.254419779742013E+02
0.249581576866270E+02
0.244337554077632E+02
0.238748117832677E+02
0.232875805185958E+02
0.226784371899883E+02
0.220537975394583E+02
0.214200464561651E+02
0.207834779420840E+02
0.270852960971459E+02
0.270152208166818E+02
0.268759960681865E+02
0.266694505771503E+02
0.263982713918760E+02
0.260659399247432E+02
0.256766518809107E+02
0.252352250148108E+02
0.247469990443489E+02
0.242177321283613E+02
0.236534980832096E+02
0.230605880137674E+02
0.224454193183461E+02
0.218144541674909E+02
0.211741286322838E+02
0.205307927285079E+02
0.269278215923657E+02
0.268572556379508E+02
0.267170524432009E+02
0.265090465407748E+02
0.262359337019276E+02
0.259012069990165E+02
0.255090767722513E+02
0.250643784469735E+02
0.245724725360688E+02
0.240391412351483E+02
0.234704857845768E+02
0.228728282669204E+02
0.222526207871827E+02
0.216163641179939E+02
0.209705369625144E+02
0.203215360744927E+02
0.268044660048795E+02
0.267335123823618E+02
0.265925361097548E+02
0.263833762407760E+02
0.261087353411382E+02
0.257721155716516E+02
0.253777386900149E+02
0.249304539221652E+02
0.244356380413680E+02
0.238990920641616E+02
0.233269387356066E+02
0.227255244668867E+02
0.221013286627188E+02
0.214608825063778E+02
0.208106983366646E+02
0.201572098346189E+02
0.267158891300401E+02
0.266446553230135E+02
0.265031202948625E+02
0.262931263301168E+02
0.260173808517773E+02
0.256793925213928E+02
0.252833912689045E+02
0.248342362063862E+02
0.243373157663794E+02
0.237984444749129E+02
0.232237605303716E+02
0.226196278471280E+02
0.219925454940786E+02
0.213490665853297E+02
0.206957277438450E+02
0.200389893400128E+02
0.266625576275600E+02
0.265911543846762E+02
0.264492814529127E+02
0.262387830556286E+02
0.259623695314814E+02
0.256235534456173E+02
0.252265696375863E+02
0.247762831620641E+02
0.242780894645679E+02
0.237378112028131E+02
0.231615958840495E+02
0.225558179747395E+02
0.219269884082296E+02
0.212816735412022E+02
0.206264246714675E+02
0.199677183093855E+02
0.266447496553110E+02
0.265732897115645E+02
0.264313037007659E+02
0.262206364925823E+02
0.259439993977343E+02
0.256049062830479E+02
0.252075936256032E+02
0.247569284627113E+02
0.242583085804012E+02
0.237175593512418E+02
0.231408313915566E+02
0.225345026935270E+02
0.219050881563254E+02
0.212591585648896E+02
0.206032701261245E+02
0.199439047515704E+02
0.306595244988900E+02
0.305994756617454E+02
0.304802337852463E+02
0.303034879011732E+02
0.300717162972003E+02
0.297881233375530E+02
0.294565601951501E+02
0.290814332810813E+02
0.286676045617882E+02
0.282202880721412E+02
0.277449467702707E+02
0.272471934669120E+02
0.267326989465074E+02
0.262071096410345E+02
0.256759763890634E+02
0.251446949806106E+02
0.302351713668781E+02
0.301740306660112E+02
0.300526136835671E+02
0.298726266186856E+02
0.296365733281801E+02
0.293476919481571E+02
0.290098753901739E+02
0.286275795179249E+02
0.282057232143086E+02
0.277495846629892E+02
0.272646979999784E+02
0.267567540692290E+02
0.262315083908518E+02
0.256946986839701E+02
0.251519734480311E+02
0.246088322664221E+02
0.298220512105200E+02
0.297598245672994E+02
0.296362440333387E+02
0.294530324085111E+02
0.292127182935720E+02
0.289185725417556E+02
0.285745285565114E+02
0.281850902605583E+02
0.277552319643969E+02
0.272902944728946E+02
0.267958815934965E+02
0.262777607794342E+02
0.257417710058747E+02
0.251937401998788E+02
0.246394136970194E+02
0.240843943494642E+02
0.294236389079975E+02
0.293603425118442E+02
0.292346304449692E+02
0.290482413977962E+02
0.288037276751911E+02
0.285043915077509E+02
0.281542051894011E+02
0.277577188845715E+02
0.273199603500644E+02
0.268463309232329E+02
0.263425019463891E+02
0.258143153584154E+02
0.252676915389819E+02
0.247085467031695E+02
0.241427212864413E+02
0.235759199038326E+02
0.290431058207997E+02
0.289787661546593E+02
0.288509750975849E+02
0.286614863944397E+02
0.284128748252956E+02
0.281084724057839E+02
0.277522884021971E+02
0.273489170214908E+02
0.269034370368816E+02
0.264213077121234E+02
0.259082651991388E+02
0.253702231359357E+02
0.248131805160484E+02
0.242431391026579E+02
0.236660317929414E+02
0.230876624742092E+02
0.286833211884976E+02
0.286179749696005E+02
0.284881778797909E+02
0.282956977742292E+02
0.280431305162218E+02
0.277338360946772E+02
0.273718585524278E+02
0.269618336011630E+02
0.265088881978017E+02
0.260185364553283E+02
0.254965760660138E+02
0.249489889584666E+02
0.243818492442797E+02
0.238012407016454E+02
0.232131851661416E+02
0.226235823271807E+02
0.283468589725443E+02
0.282805529969678E+02
0.281488429447203E+02
0.279535097466996E+02
0.276971688200760E+02
0.273832061286764E+02
0.270156980571604E+02
0.265993189889853E+02
0.261392408756531E+02
0.256410291787416E+02
0.251105393645079E+02
0.245538176658479E+02
0.239770091509746E+02
0.233862753197680E+02
0.227877225623161E+02
0.221873419350076E+02
0.280360085051019E+02
0.279687993846989E+02
0.278352890355442E+02
0.276372703561225E+02
0.273773766752921E+02
0.270590177784420E+02
0.266862997560874E+02
0.262639325777681E+02
0.257971296899567E+02
0.252915040265705E+02
0.247529646125570E+02
0.241876174677962E+02
0.236016738337865E+02
0.230013679175707E+02
0.223928854520753E+02
0.217823034857890E+02
0.277527874553093E+02
0.276847412366804E+02
0.275495620972238E+02
0.273490537368586E+02
0.270858656640255E+02
0.267634292068862E+02
0.263858773600591E+02
0.259579523812210E+02
0.254849054460782E+02
0.249723927561142E+02
0.244263722793010E+02
0.238530048229316E+02
0.232585624441201E+02
0.226493463664601E+02
0.220316156677172E+02
0.214115271105475E+02
0.274989558395571E+02
0.274301474969237E+02
0.272934489076531E+02
0.270906733629249E+02
0.268244847493439E+02
0.264983335604679E+02
0.261163767600285E+02
0.256833854212414E+02
0.252046444591335E+02
0.246858488549648E+02
0.241330005519107E+02
0.235523097128952E+02
0.229501033296704E+02
0.223327433268092E+02
0.217065553929853E+02
0.210777688729181E+02
0.272760300465488E+02
0.272065428435631E+02
0.270684907085516E+02
0.268636952818503E+02
0.265948329754553E+02
0.262653709959693E+02
0.258794872370177E+02
0.254419779742013E+02
0.249581576866270E+02
0.244337554077632E+02
0.238748117832677E+02
0.232875805185958E+02
0.226784371899883E+02
0.220537975394583E+02
0.214200464561651E+02
0.207834779420840E+02
0.270852960971459E+02
0.270152208166818E+02
0.268759960681865E+02
0.266694505771503E+02
0.263982713918760E+02
0.260659399247432E+02
0.256766518809107E+02
0.252352250148108E+02
0.247469990443489E+02
0.242177321283613E+02
0.236534980832096E+02
0.230605880137674E+02
0.224454193183461E+02
0.218144541674909E+02
0.211741286322838E+02
0.205307927285079E+02
0.269278215923657E+02
0.268572556379508E+02
0.267170524432009E+02
0.265090465407748E+02
0.262359337019276E+02
0.259012069990165E+02
0.255090767722513E+02
0.250643784469735E+02
0.245724725360688E+02
0.240391412351483E+02
0.234704857845768E+02
0.228728282669204E+02
0.222526207871827E+02
0.216163641179939E+02
0.209705369625144E+02
0.203215360744927E+02
0.268044660048795E+02
0.267335123823618E+02
0.265925361097548E+02
0.263833762407760E+02
0.261087353411382E+02
0.257721155716516E+02
0.253777386900149E+02
0.249304539221652E+02
0.244356380413680E+02
0.238990920641616E+02
0.233269387356066E+02
0.227255244668867E+02
0.221013286627188E+02
0.214608825063778E+02
0.208106983366646E+02
0.201572098346189E+02
0.267158891300401E+02
0.266446553230135E+02
0.265031202948625E+02
0.262931263301168E+02
0.260173808517773E+02
0.256793925213928E+02
0.252833912689045E+02
0.248342362063862E+02
0.243373157663794E+02
0.237984444749129E+02
0.232237605303716E+02
0.226196278471280E+02
0.219925454940786E+02
0.213490665853297E+02
0.206957277438450E+02
0.200389893400128E+02
0.266625576275600E+02
0.265911543846762E+02
0.264492814529127E+02
0.262387830556286E+02
0.259623695314814E+02
0.256235534456173E+02
0.252265696375863E+02
0.247762831620641E+02
0.242780894645679E+02
0.237378112028131E+02
0.231615958840495E+02
0.225558179747395E+02
0.219269884082296E+02
0.212816735412022E+02
0.206264246714675E+02
0.199677183093855E+02
0.266447496553110E+02
0.265732897115645E+02
0.264313037007659E+02
0.262206364925823E+02
0.259439993977343E+02
0.256049062830479E+02
0.252075936256032E+02
0.247569284627113E+02
0.242583085804012E+02
0.237175593512418E+02
0.231408313915566E+02
0.225345026935270E+02
0.219050881563254E+02
0.212591585648896E+02
0.206032701261245E+02
0.199439047515704E+02
</DataArray>
</PointData>
</Piece>
</RectilinearGrid>
</VTKFile>
