<?xml version="1.0"?>
<VTKFile type="RectilinearGrid" version="0.1" byte_order="LittleEndian">
<RectilinearGrid WholeExtent="0   63    0   63    0    3">
<Piece Extent="47   63    0   15    0    3">
<Coordinates>
<DataArray Name="x" type="Float32" format="ascii">
0.470000000000000E+01
0.480000000000000E+01
0.490000000000000E+01
0.500000000000000E+01
0.510000000000000E+01
0.520000000000000E+01
0.530000000000000E+01
0.540000000000000E+01
0.550000000000000E+01
0.560000000000000E+01
0.570000000000000E+01
0.580000000000000E+01
0.590000000000000E+01
0.600000000000000E+01
0.610000000000000E+01
0.620000000000000E+01
0.630000000000000E+01
</DataArray>
<DataArray Name="y" type="Float32" format="ascii">
0.000000000000000E+00
0.100000000000000E+00
0.200000000000000E+00
0.300000000000000E+00
0.400000000000000E+00
0.500000000000000E+00
0.600000000000000E+00
0.700000000000000E+00
0.800000000000000E+00
0.900000000000000E+00
0.100000000000000E+01
0.110000000000000E+01
0.120000000000000E+01
0.130000000000000E+01
0.140000000000000E+01
0.150000000000000E+01
</DataArray>
<DataArray Name="z" type="Float32" format="ascii">
0.000000000000000E+00
0.100000000000000E+00
0.200000000000000E+00
0.300000000000000E+00
</DataArray>
</Coordinates>
<PointData Scalars="c">
<DataArray type="Float32" Name="c" format="ascii">
0.325427668578425E+02
0.330342839255652E+02
0.335411737784456E+02
0.340597251558963E+02
0.345855536066411E+02
0.351135347095871E+02
0.356377680398495E+02
0.361515855942817E+02
0.366476172005167E+02
0.371179221715246E+02
0.375541911003464E+02
0.379480145572274E+02
0.382912072903409E+02
0.385761684128236E+02
0.387962512403836E+02
0.389461121526524E+02
0.390220070413182E+02
0.324037541199162E+02
0.328977582841160E+02
0.334071336511655E+02
0.339281501965289E+02
0.344564041855922E+02
0.349867511859210E+02
0.355132698793354E+02
0.360292704283295E+02
0.365273599576041E+02
0.369995744407847E+02
0.374375809010443E+02
0.378329466835064E+02
0.381774643753298E+02
0.384635128101255E+02
0.386844277574192E+02
0.388348515956606E+02
0.389110304547488E+02
0.321757209720069E+02
0.326738340377026E+02
0.331873140663772E+02
0.337124001260494E+02
0.342446567647909E+02
0.347789066737244E+02
0.353091942394421E+02
0.358287938066419E+02
0.363302752723419E+02
0.368056363479898E+02
0.372465054213672E+02
0.376444117690734E+02
0.379911116539724E+02
0.382789506685904E+02
0.385012358207929E+02
0.386525865375903E+02
0.387292329464488E+02
0.318639259093173E+02
0.323677175093773E+02
0.328868668218717E+02
0.334175703963826E+02
0.339553492432041E+02
0.344949810038402E+02
0.350304631333582E+02
0.355550210067676E+02
0.360611736542301E+02
0.365408665250489E+02
0.369856752442767E+02
0.373870771030986E+02
0.377367787605352E+02
0.380270804137984E+02
0.382512497906110E+02
0.384038749712901E+02
0.384811642265208E+02
0.314753071087787E+02
0.319862780037322E+02
0.325125891543993E+02
0.330503836959665E+02
0.335951281037913E+02
0.341415437240798E+02
0.346835694690141E+02
0.352143697036824E+02
0.357264001345931E+02
0.362115411797014E+02
0.366613028239634E+02
0.370670976896764E+02
0.374205707281605E+02
0.377139656605744E+02
0.379405013424297E+02
0.380947268495646E+02
0.381728232547319E+02
0.310181102368507E+02
0.315376792028200E+02
0.320725588162702E+02
0.326188287732686E+02
0.331718910191297E+02
0.337264004860012E+02
0.342762271746901E+02
0.348144637455128E+02
0.353334915528808E+02
0.358251146985945E+02
0.362807661556275E+02
0.366917826777592E+02
0.370497368178433E+02
0.373468060295645E+02
0.375761518162066E+02
0.377322774762307E+02
0.378113321589172E+02
0.305014754023844E+02
0.310309699928797E+02
0.315757288876309E+02
0.321317593176288E+02
0.326943898496138E+02
0.332582001690971E+02
0.338169824116274E+02
0.343637483650445E+02
0.348907956205168E+02
0.353898423559696E+02
0.358522348582651E+02
0.362692244838355E+02
0.366323022854841E+02
0.369335711065861E+02
0.371661278666877E+02
0.373244243069074E+02
0.374045736180412E+02
0.299350197352162E+02
0.304756707882466E+02
0.310315179735704E+02
0.315984881291079E+02
0.321718288511727E+02
0.327460371506572E+02
0.333148198830137E+02
0.338711004514006E+02
0.344070850200997E+02
0.349143980423899E+02
0.353842912697245E+02
0.358079229246834E+02
0.361766951605129E+02
0.364826294170278E+02
0.367187521328308E+02
0.368794587721777E+02
0.369608232695055E+02
0.293284489289596E+02
0.298813883102662E+02
0.304494283618127E+02
0.310284087718550E+02
0.316134899090746E+02
0.321990801660656E+02
0.327787953216218E+02
0.333454646146114E+02
0.338911969400127E+02
0.344075171020599E+02
0.348855763567075E+02
0.353164339071427E+02
0.356913973618574E+02
0.360024015585395E+02
0.362423979291925E+02
0.364057220308176E+02
0.364884060002643E+02
0.286912243930591E+02
0.292574851602040E+02
0.298387181745210E+02
0.304306704411044E+02
0.310284102282332E+02
0.316262528958947E+02
0.322177190063393E+02
0.327955396177389E+02
0.333517223570398E+02
0.338776883460307E+02
0.343644842819048E+02
0.348030663157263E+02
0.351846436178774E+02
0.355010608148450E+02
0.357451911715494E+02
0.359113077903164E+02
0.359953992210340E+02
0.280323037241336E+02
0.286128216920864E+02
0.292081448187639E+02
0.298139231501432E+02
0.304251293919342E+02
0.310359830019375E+02
0.316399068456987E+02
0.322295315377898E+02
0.327967612601974E+02
0.333329112772613E+02
0.338289215199175E+02
0.342756428605325E+02
0.346641838409047E+02
0.349862968089372E+02
0.352347750239404E+02
0.354038276336019E+02
0.354893985381053E+02
0.273599625121103E+02
0.279555781110058E+02
0.285657875755499E+02
0.291861409953431E+02
0.298115134686454E+02
0.304360272164984E+02
0.310530065604121E+02
0.316549811182783E+02
0.322337512130488E+02
0.327805258633401E+02
0.332861378011793E+02
0.337413321138290E+02
0.341371161405528E+02
0.344651493431630E+02
0.347181443863366E+02
0.348902459519137E+02
0.349773529129393E+02
0.266816964214622E+02
0.272931557593730E+02
0.279189483170942E+02
0.285545225197011E+02
0.291946552203793E+02
0.298333715724553E+02
0.304638980863836E+02
0.310786644678648E+02
0.316693684401037E+02
0.322271140712593E+02
0.327426281241981E+02
0.332065509983253E+02
0.336097897580304E+02
0.339439117239772E+02
0.342015495324682E+02
0.343767838012210E+02
0.344654686308923E+02
0.260041950917115E+02
0.266321492568497E+02
0.272741221438224E+02
0.279254600943588E+02
0.285808424602851E+02
0.292341989483311E+02
0.298786604955840E+02
0.305065595205082E+02
0.311094939641347E+02
0.316784657943340E+02
0.322040985599692E+02
0.326769305339830E+02
0.330877707993993E+02
0.334280965074820E+02
0.336904618783397E+02
0.338688846927103E+02
0.339591751047078E+02
0.253333743042495E+02
0.259783761428320E+02
0.266370247934154E+02
0.273045653732189E+02
0.279755818146027E+02
0.286439113786372E+02
0.293025930732612E+02
0.299438660749286E+02
0.305592327807120E+02
0.311395973133712E+02
0.316754841319375E+02
0.321573332517248E+02
0.325758592831837E+02
0.329224522687825E+02
0.331895905513866E+02
0.333712310325028E+02
0.334631412507169E+02
0.246744502276300E+02
0.253369480944251E+02
0.260126611527404E+02
0.266967354044744E+02
0.273836627189156E+02
0.280671921968368E+02
0.287402758457343E+02
0.293950649222190E+02
0.300229717792713E+02
0.306148081859368E+02
0.311610048320982E+02
0.316519084817703E+02
0.320781438358452E+02
0.324310178314992E+02
0.327029362750766E+02
0.328877977783731E+02
0.329813290322116E+02
0.325427668578425E+02
0.330342839255652E+02
0.335411737784456E+02
0.340597251558963E+02
0.345855536066411E+02
0.351135347095871E+02
0.356377680398495E+02
0.361515855942817E+02
0.366476172005167E+02
0.371179221715246E+02
0.375541911003464E+02
0.379480145572274E+02
0.382912072903409E+02
0.385761684128236E+02
0.387962512403836E+02
0.389461121526524E+02
0.390220070413182E+02
0.324037541199162E+02
0.328977582841160E+02
0.334071336511655E+02
0.339281501965289E+02
0.344564041855922E+02
0.349867511859210E+02
0.355132698793354E+02
0.360292704283295E+02
0.365273599576041E+02
0.369995744407847E+02
0.374375809010443E+02
0.378329466835064E+02
0.381774643753298E+02
0.384635128101255E+02
0.386844277574192E+02
0.388348515956606E+02
0.389110304547488E+02
0.321757209720069E+02
0.326738340377026E+02
0.331873140663772E+02
0.337124001260494E+02
0.342446567647909E+02
0.347789066737244E+02
0.353091942394421E+02
0.358287938066419E+02
0.363302752723419E+02
0.368056363479898E+02
0.372465054213672E+02
0.376444117690734E+02
0.379911116539724E+02
0.382789506685904E+02
0.385012358207929E+02
0.386525865375903E+02
0.387292329464488E+02
0.318639259093173E+02
0.323677175093773E+02
0.328868668218717E+02
0.334175703963826E+02
0.339553492432041E+02
0.344949810038402E+02
0.350304631333582E+02
0.355550210067676E+02
0.360611736542301E+02
0.365408665250489E+02
0.369856752442767E+02
0.373870771030986E+02
0.377367787605352E+02
0.380270804137984E+02
0.382512497906110E+02
0.384038749712901E+02
0.384811642265208E+02
0.314753071087787E+02
0.319862780037322E+02
0.325125891543993E+02
0.330503836959665E+02
0.335951281037913E+02
0.341415437240798E+02
0.346835694690141E+02
0.352143697036824E+02
0.357264001345931E+02
0.362115411797014E+02
0.366613028239634E+02
0.370670976896764E+02
0.374205707281605E+02
0.377139656605744E+02
0.379405013424297E+02
0.380947268495646E+02
0.381728232547319E+02
0.310181102368507E+02
0.315376792028200E+02
0.320725588162702E+02
0.326188287732686E+02
0.331718910191297E+02
0.337264004860012E+02
0.342762271746901E+02
0.348144637455128E+02
0.353334915528808E+02
0.358251146985945E+02
0.362807661556275E+02
0.366917826777592E+02
0.370497368178433E+02
0.373468060295645E+02
0.375761518162066E+02
0.377322774762307E+02
0.378113321589172E+02
0.305014754023844E+02
0.310309699928797E+02
0.315757288876309E+02
0.321317593176288E+02
0.326943898496138E+02
0.332582001690971E+02
0.338169824116274E+02
0.343637483650445E+02
0.348907956205168E+02
0.353898423559696E+02
0.358522348582651E+02
0.362692244838355E+02
0.366323022854841E+02
0.369335711065861E+02
0.371661278666877E+02
0.373244243069074E+02
0.374045736180412E+02
0.299350197352162E+02
0.304756707882466E+02
0.310315179735704E+02
0.315984881291079E+02
0.321718288511727E+02
0.327460371506572E+02
0.333148198830137E+02
0.338711004514006E+02
0.344070850200997E+02
0.349143980423899E+02
0.353842912697245E+02
0.358079229246834E+02
0.361766951605129E+02
0.364826294170278E+02
0.367187521328308E+02
0.368794587721777E+02
0.369608232695055E+02
0.293284489289596E+02
0.298813883102662E+02
0.304494283618127E+02
0.310284087718550E+02
0.316134899090746E+02
0.321990801660656E+02
0.327787953216218E+02
0.333454646146114E+02
0.338911969400127E+02
0.344075171020599E+02
0.348855763567075E+02
0.353164339071427E+02
0.356913973618574E+02
0.360024015585395E+02
0.362423979291925E+02
0.364057220308176E+02
0.364884060002643E+02
0.286912243930591E+02
0.292574851602040E+02
0.298387181745210E+02
0.304306704411044E+02
0.310284102282332E+02
0.316262528958947E+02
0.322177190063393E+02
0.327955396177389E+02
0.333517223570398E+02
0.338776883460307E+02
0.343644842819048E+02
0.348030663157263E+02
0.351846436178774E+02
0.355010608148450E+02
0.357451911715494E+02
0.359113077903164E+02
0.359953992210340E+02
0.280323037241336E+02
0.286128216920864E+02
0.292081448187639E+02
0.298139231501432E+02
0.304251293919342E+02
0.310359830019375E+02
0.316399068456987E+02
0.322295315377898E+02
0.327967612601974E+02
0.333329112772613E+02
0.338289215199175E+02
0.342756428605325E+02
0.346641838409047E+02
0.349862968089372E+02
0.352347750239404E+02
0.354038276336019E+02
0.354893985381053E+02
0.273599625121103E+02
0.279555781110058E+02
0.285657875755499E+02
0.291861409953431E+02
0.298115134686454E+02
0.304360272164984E+02
0.310530065604121E+02
0.316549811182783E+02
0.322337512130488E+02
0.327805258633401E+02
0.332861378011793E+02
0.337413321138290E+02
0.341371161405528E+02
0.344651493431630E+02
0.347181443863366E+02
0.348902459519137E+02
0.349773529129393E+02
0.266816964214622E+02
0.272931557593730E+02
0.279189483170942E+02
0.285545225197011E+02
0.291946552203793E+02
0.298333715724553E+02
0.304638980863836E+02
0.310786644678648E+02
0.316693684401037E+02
0.322271140712593E+02
0.327426281241981E+02
0.332065509983253E+02
0.336097897580304E+02
0.339439117239772E+02
0.342015495324682E+02
0.343767838012210E+02
0.344654686308923E+02
0.260041950917115E+02
0.266321492568497E+02
0.272741221438224E+02
0.279254600943588E+02
0.285808424602851E+02
0.292341989483311E+02
0.298786604955840E+02
0.305065595205082E+02
0.311094939641347E+02
0.316784657943340E+02
0.322040985599692E+02
0.326769305339830E+02
0.330877707993993E+02
0.334280965074820E+02
0.336904618783397E+02
0.338688846927103E+02
0.339591751047078E+02
0.253333743042495E+02
0.259783761428320E+02
0.266370247934154E+02
0.273045653732189E+02
0.279755818146027E+02
0.286439113786372E+02
0.293025930732612E+02
0.299438660749286E+02
0.305592327807120E+02
0.311395973133712E+02
0.316754841319375E+02
0.321573332517248E+02
0.325758592831837E+02
0.329224522687825E+02
0.331895905513866E+02
0.333712310325028E+02
0.334631412507169E+02
0.246744502276300E+02
0.253369480944251E+02
0.260126611527404E+02
0.266967354044744E+02
0.273836627189156E+02
0.280671921968368E+02
0.287402758457343E+02
0.293950649222190E+02
0.300229717792713E+02
0.306148081859368E+02
0.311610048320982E+02
0.316519084817703E+02
0.320781438358452E+02
0.324310178314992E+02
0.327029362750766E+02
0.328877977783731E+02
0.329813290322116E+02
0.325427668578425E+02
0.330342839255652E+02
0.335411737784456E+02
0.340597251558963E+02
0.345855536066411E+02
0.351135347095871E+02
0.356377680398495E+02
0.361515855942817E+02
0.366476172005167E+02
0.371179221715246E+02
0.375541911003464E+02
0.379480145572274E+02
0.382912072903409E+02
0.385761684128236E+02
0.387962512403836E+02
0.389461121526524E+02
0.390220070413182E+02
0.324037541199162E+02
0.328977582841160E+02
0.334071336511655E+02
0.339281501965289E+02
0.344564041855922E+02
0.349867511859210E+02
0.355132698793354E+02
0.360292704283295E+02
0.365273599576041E+02
0.369995744407847E+02
0.374375809010443E+02
0.378329466835064E+02
0.381774643753298E+02
0.384635128101255E+02
0.386844277574192E+02
0.388348515956606E+02
0.389110304547488E+02
0.321757209720069E+02
0.326738340377026E+02
0.331873140663772E+02
0.337124001260494E+02
0.342446567647909E+02
0.347789066737244E+02
0.353091942394421E+02
0.358287938066419E+02
0.363302752723419E+02
0.368056363479898E+02
0.372465054213672E+02
0.376444117690734E+02
0.379911116539724E+02
0.382789506685904E+02
0.385012358207929E+02
0.386525865375903E+02
0.387292329464488E+02
0.318639259093173E+02
0.323677175093773E+02
0.328868668218717E+02
0.334175703963826E+02
0.339553492432041E+02
0.344949810038402E+02
0.350304631333582E+02
0.355550210067676E+02
0.360611736542301E+02
0.365408665250489E+02
0.369856752442767E+02
0.373870771030986E+02
0.377367787605352E+02
0.380270804137984E+02
0.382512497906110E+02
0.384038749712901E+02
0.384811642265208E+02
0.314753071087787E+02
0.319862780037322E+02
0.325125891543993E+02
0.330503836959665E+02
0.335951281037913E+02
0.341415437240798E+02
0.346835694690141E+02
0.352143697036824E+02
0.357264001345931E+02
0.362115411797014E+02
0.366613028239634E+02
0.370670976896764E+02
0.374205707281605E+02
0.377139656605744E+02
0.379405013424297E+02
0.380947268495646E+02
0.381728232547319E+02
0.310181102368507E+02
0.315376792028200E+02
0.320725588162702E+02
0.326188287732686E+02
0.331718910191297E+02
0.337264004860012E+02
0.342762271746901E+02
0.348144637455128E+02
0.353334915528808E+02
0.358251146985945E+02
0.362807661556275E+02
0.366917826777592E+02
0.370497368178433E+02
0.373468060295645E+02
0.375761518162066E+02
0.377322774762307E+02
0.378113321589172E+02
0.305014754023844E+02
0.310309699928797E+02
0.315757288876309E+02
0.321317593176288E+02
0.326943898496138E+02
0.332582001690971E+02
0.338169824116274E+02
0.343637483650445E+02
0.348907956205168E+02
0.353898423559696E+02
0.358522348582651E+02
0.362692244838355E+02
0.366323022854841E+02
0.369335711065861E+02
0.371661278666877E+02
0.373244243069074E+02
0.374045736180412E+02
0.299350197352162E+02
0.304756707882466E+02
0.310315179735704E+02
0.315984881291079E+02
0.321718288511727E+02
0.327460371506572E+02
0.333148198830137E+02
0.338711004514006E+02
0.344070850200997E+02
0.349143980423899E+02
0.353842912697245E+02
0.358079229246834E+02
0.361766951605129E+02
0.364826294170278E+02
0.367187521328308E+02
0.368794587721777E+02
0.369608232695055E+02
0.293284489289596E+02
0.298813883102662E+02
0.304494283618127E+02
0.310284087718550E+02
0.316134899090746E+02
0.321990801660656E+02
0.327787953216218E+02
0.333454646146114E+02
0.338911969400127E+02
0.344075171020599E+02
0.348855763567075E+02
0.353164339071427E+02
0.356913973618574E+02
0.360024015585395E+02
0.362423979291925E+02
0.364057220308176E+02
0.364884060002643E+02
0.286912243930591E+02
0.292574851602040E+02
0.298387181745210E+02
0.304306704411044E+02
0.310284102282332E+02
0.316262528958947E+02
0.322177190063393E+02
0.327955396177389E+02
0.333517223570398E+02
0.338776883460307E+02
0.343644842819048E+02
0.348030663157263E+02
0.351846436178774E+02
0.355010608148450E+02
0.357451911715494E+02
0.359113077903164E+02
0.359953992210340E+02
0.280323037241336E+02
0.286128216920864E+02
0.292081448187639E+02
0.298139231501432E+02
0.304251293919342E+02
0.310359830019375E+02
0.316399068456987E+02
0.322295315377898E+02
0.327967612601974E+02
0.333329112772613E+02
0.338289215199175E+02
0.342756428605325E+02
0.346641838409047E+02
0.349862968089372E+02
0.352347750239404E+02
0.354038276336019E+02
0.354893985381053E+02
0.273599625121103E+02
0.279555781110058E+02
0.285657875755499E+02
0.291861409953431E+02
0.298115134686454E+02
0.304360272164984E+02
0.310530065604121E+02
0.316549811182783E+02
0.322337512130488E+02
0.327805258633401E+02
0.332861378011793E+02
0.337413321138290E+02
0.341371161405528E+02
0.344651493431630E+02
0.347181443863366E+02
0.348902459519137E+02
0.349773529129393E+02
0.266816964214622E+02
0.272931557593730E+02
0.279189483170942E+02
0.285545225197011E+02
0.291946552203793E+02
0.298333715724553E+02
0.304638980863836E+02
0.310786644678648E+02
0.316693684401037E+02
0.322271140712593E+02
0.327426281241981E+02
0.332065509983253E+02
0.336097897580304E+02
0.339439117239772E+02
0.342015495324682E+02
0.343767838012210E+02
0.344654686308923E+02
0.260041950917115E+02
0.266321492568497E+02
0.272741221438224E+02
0.279254600943588E+02
0.285808424602851E+02
0.292341989483311E+02
0.298786604955840E+02
0.305065595205082E+02
0.311094939641347E+02
0.316784657943340E+02
0.322040985599692E+02
0.326769305339830E+02
0.330877707993993E+02
0.334280965074820E+02
0.336904618783397E+02
0.338688846927103E+02
0.339591751047078E+02
0.253333743042495E+02
0.259783761428320E+02
0.266370247934154E+02
0.273045653732189E+02
0.279755818146027E+02
0.286439113786372E+02
0.293025930732612E+02
0.299438660749286E+02
0.305592327807120E+02
0.311395973133712E+02
0.316754841319375E+02
0.321573332517248E+02
0.325758592831837E+02
0.329224522687825E+02
0.331895905513866E+02
0.333712310325028E+02
0.334631412507169E+02
0.246744502276300E+02
0.253369480944251E+02
0.260126611527404E+02
0.266967354044744E+02
0.273836627189156E+02
0.280671921968368E+02
0.287402758457343E+02
0.293950649222190E+02
0.300229717792713E+02
0.306148081859368E+02
0.311610048320982E+02
0.316519084817703E+02
0.320781438358452E+02
0.324310178314992E+02
0.327029362750766E+02
0.328877977783731E+02
0.329813290322116E+02
0.325427668578425E+02
0.330342839255652E+02
0.335411737784456E+02
0.340597251558963E+02
0.345855536066411E+02
0.351135347095871E+02
0.356377680398495E+02
0.361515855942817E+02
0.366476172005167E+02
0.371179221715246E+02
0.375541911003464E+02
0.379480145572274E+02
0.382912072903409E+02
0.385761684128236E+02
0.387962512403836E+02
0.389461121526524E+02
0.390220070413182E+02
0.324037541199162E+02
0.328977582841160E+02
0.334071336511655E+02
0.339281501965289E+02
0.344564041855922E+02
0.349867511859210E+02
0.355132698793354E+02
0.360292704283295E+02
0.365273599576041E+02
0.369995744407847E+02
0.374375809010443E+02
0.378329466835064E+02
0.381774643753298E+02
0.384635128101255E+02
0.386844277574192E+02
0.388348515956606E+02
0.389110304547488E+02
0.321757209720069E+02
0.326738340377026E+02
0.331873140663772E+02
0.337124001260494E+02
0.342446567647909E+02
0.347789066737244E+02
0.353091942394421E+02
0.358287938066419E+02
0.363302752723419E+02
0.368056363479898E+02
0.372465054213672E+02
0.376444117690734E+02
0.379911116539724E+02
0.382789506685904E+02
0.385012358207929E+02
0.386525865375903E+02
0.387292329464488E+02
0.318639259093173E+02
0.323677175093773E+02
0.328868668218717E+02
0.334175703963826E+02
0.339553492432041E+02
0.344949810038402E+02
0.350304631333582E+02
0.355550210067676E+02
0.360611736542301E+02
0.365408665250489E+02
0.369856752442767E+02
0.373870771030986E+02
0.377367787605352E+02
0.380270804137984E+02
0.382512497906110E+02
0.384038749712901E+02
0.384811642265208E+02
0.314753071087787E+02
0.319862780037322E+02
0.325125891543993E+02
0.330503836959665E+02
0.335951281037913E+02
0.341415437240798E+02
0.346835694690141E+02
0.352143697036824E+02
0.357264001345931E+02
0.362115411797014E+02
0.366613028239634E+02
0.370670976896764E+02
0.374205707281605E+02
0.377139656605744E+02
0.379405013424297E+02
0.380947268495646E+02
0.381728232547319E+02
0.310181102368507E+02
0.315376792028200E+02
0.320725588162702E+02
0.326188287732686E+02
0.331718910191297E+02
0.337264004860012E+02
0.342762271746901E+02
0.348144637455128E+02
0.353334915528808E+02
0.358251146985945E+02
0.362807661556275E+02
0.366917826777592E+02
0.370497368178433E+02
0.373468060295645E+02
0.375761518162066E+02
0.377322774762307E+02
0.378113321589172E+02
0.305014754023844E+02
0.310309699928797E+02
0.315757288876309E+02
0.321317593176288E+02
0.326943898496138E+02
0.332582001690971E+02
0.338169824116274E+02
0.343637483650445E+02
0.348907956205168E+02
0.353898423559696E+02
0.358522348582651E+02
0.362692244838355E+02
0.366323022854841E+02
0.369335711065861E+02
0.371661278666877E+02
0.373244243069074E+02
0.374045736180412E+02
0.299350197352162E+02
0.304756707882466E+02
0.310315179735704E+02
0.315984881291079E+02
0.321718288511727E+02
0.327460371506572E+02
0.333148198830137E+02
0.338711004514006E+02
0.344070850200997E+02
0.349143980423899E+02
0.353842912697245E+02
0.358079229246834E+02
0.361766951605129E+02
0.364826294170278E+02
0.367187521328308E+02
0.368794587721777E+02
0.369608232695055E+02
0.293284489289596E+02
0.298813883102662E+02
0.304494283618127E+02
0.310284087718550E+02
0.316134899090746E+02
0.321990801660656E+02
0.327787953216218E+02
0.333454646146114E+02
0.338911969400127E+02
0.344075171020599E+02
0.348855763567075E+02
0.353164339071427E+02
0.356913973618574E+02
0.360024015585395E+02
0.362423979291925E+02
0.364057220308176E+02
0.364884060002643E+02
0.286912243930591E+02
0.292574851602040E+02
0.298387181745210E+02
0.304306704411044E+02
0.310284102282332E+02
0.316262528958947E+02
0.322177190063393E+02
0.327955396177389E+02
0.333517223570398E+02
0.338776883460307E+02
0.343644842819048E+02
0.348030663157263E+02
0.351846436178774E+02
0.355010608148450E+02
0.357451911715494E+02
0.359113077903164E+02
0.359953992210340E+02
0.280323037241336E+02
0.286128216920864E+02
0.292081448187639E+02
0.298139231501432E+02
0.304251293919342E+02
0.310359830019375E+02
0.316399068456987E+02
0.322295315377898E+02
0.327967612601974E+02
0.333329112772613E+02
0.338289215199175E+02
0.342756428605325E+02
0.346641838409047E+02
0.349862968089372E+02
0.352347750239404E+02
0.354038276336019E+02
0.354893985381053E+02
0.273599625121103E+02
0.279555781110058E+02
0.285657875755499E+02
0.291861409953431E+02
0.298115134686454E+02
0.304360272164984E+02
0.310530065604121E+02
0.316549811182783E+02
0.322337512130488E+02
0.327805258633401E+02
0.332861378011793E+02
0.337413321138290E+02
0.341371161405528E+02
0.344651493431630E+02
0.347181443863366E+02
0.348902459519137E+02
0.349773529129393E+02
0.266816964214622E+02
0.272931557593730E+02
0.279189483170942E+02
0.285545225197011E+02
0.291946552203793E+02
0.298333715724553E+02
0.304638980863836E+02
0.310786644678648E+02
0.316693684401037E+02
0.322271140712593E+02
0.327426281241981E+02
0.332065509983253E+02
0.336097897580304E+02
0.339439117239772E+02
0.342015495324682E+02
0.343767838012210E+02
0.344654686308923E+02
0.260041950917115E+02
0.266321492568497E+02
0.272741221438224E+02
0.279254600943588E+02
0.285808424602851E+02
0.292341989483311E+02
0.298786604955840E+02
0.305065595205082E+02
0.311094939641347E+02
0.316784657943340E+02
0.322040985599692E+02
0.326769305339830E+02
0.330877707993993E+02
0.334280965074820E+02
0.336904618783397E+02
0.338688846927103E+02
0.339591751047078E+02
0.253333743042495E+02
0.259783761428320E+02
0.266370247934154E+02
0.273045653732189E+02
0.279755818146027E+02
0.286439113786372E+02
0.293025930732612E+02
0.299438660749286E+02
0.305592327807120E+02
0.311395973133712E+02
0.316754841319375E+02
0.321573332517248E+02
0.325758592831837E+02
0.329224522687825E+02
0.331895905513866E+02
0.333712310325028E+02
0.334631412507169E+02
0.246744502276300E+02
0.253369480944251E+02
0.260126611527404E+02
0.266967354044744E+02
0.273836627189156E+02
0.280671921968368E+02
0.287402758457343E+02
0.293950649222190E+02
0.300229717792713E+02
0.306148081859368E+02
0.311610048320982E+02
0.316519084817703E+02
0.320781438358452E+02
0.324310178314992E+02
0.327029362750766E+02
0.328877977783731E+02
0.329813290322116E+02
</DataArray>
</PointData>
</Piece>
</RectilinearGrid>
</VTKFile>
