<?xml version="1.0"?>
<VTKFile type="RectilinearGrid" version="0.1" byte_order="LittleEndian">
<RectilinearGrid WholeExtent="0   63    0   63    0    3">
<Piece Extent="0   15   31   47    0    3">
<Coordinates>
<DataArray Name="x" type="Float32" format="ascii">
0.000000000000000E+00
0.100000000000000E+00
0.200000000000000E+00
0.300000000000000E+00
0.400000000000000E+00
0.500000000000000E+00
0.600000000000000E+00
0.700000000000000E+00
0.800000000000000E+00
0.900000000000000E+00
0.100000000000000E+01
0.110000000000000E+01
0.120000000000000E+01
0.130000000000000E+01
0.140000000000000E+01
0.150000000000000E+01
</DataArray>
<DataArray Name="y" type="Float32" format="ascii">
0.310000000000000E+01
0.320000000000000E+01
0.330000000000000E+01
0.340000000000000E+01
0.350000000000000E+01
0.360000000000000E+01
0.370000000000000E+01
0.380000000000000E+01
0.390000000000000E+01
0.400000000000000E+01
0.410000000000000E+01
0.420000000000000E+01
0.430000000000000E+01
0.440000000000000E+01
0.450000000000000E+01
0.460000000000000E+01
0.470000000000000E+01
</DataArray>
<DataArray Name="z" type="Float32" format="ascii">
0.000000000000000E+00
0.100000000000000E+00
0.200000000000000E+00
0.300000000000000E+00
</DataArray>
</Coordinates>
<PointData Scalars="c">
<DataArray type="Float32" Name="c" format="ascii">
0.255567991179575E+02
0.255232002234815E+02
0.254563513777979E+02
0.253569464056048E+02
0.252260159557228E+02
0.250649155792248E+02
0.248753101348880E+02
0.246591547696459E+02
0.244186727709658E+02
0.241563306296477E+02
0.238748106846232E+02
0.235769817454403E+02
0.232658681031038E+02
0.229446173459591E+02
0.226164673948376E+02
0.222847131614384E+02
0.255697463085695E+02
0.255361656517908E+02
0.254693531109464E+02
0.253700021709003E+02
0.252391429739141E+02
0.250781304016157E+02
0.248886284855787E+02
0.246725913941967E+02
0.244322412927814E+02
0.241700434153768E+02
0.238886787198592E+02
0.235910145219892E+02
0.232800735190505E+02
0.229590016197149E+02
0.226310349942824E+02
0.222994667491824E+02
0.256084731261431E+02
0.255749469970060E+02
0.255082430014789E+02
0.254090536083103E+02
0.252784074451385E+02
0.251176573919407E+02
0.249284650069496E+02
0.247127815327368E+02
0.244728257794008E+02
0.242110592233447E+02
0.239301586931834E+02
0.236329870383873E+02
0.233225621911938E+02
0.230020250382801E+02
0.226746065161392E+02
0.223435943337798E+02
0.256726360403339E+02
0.256392001746083E+02
0.255726758616069E+02
0.254737538878076E+02
0.253434603732647E+02
0.251831448840791E+02
0.249944648837232E+02
0.247793667709470E+02
0.245400638012134E+02
0.242790112301392E+02
0.239988790504274E+02
0.237025227177980E+02
0.233929522762823E+02
0.230733002991227E+02
0.227467890588839E+02
0.224166973299507E+02
0.257616649485351E+02
0.257283541655805E+02
0.256620788478969E+02
0.255635274502889E+02
0.254337226172549E+02
0.252740093218484E+02
0.250860393522544E+02
0.248717523938422E+02
0.246333540036581E+02
0.243732908158128E+02
0.240942233491807E+02
0.237989968127727E+02
0.234906103189120E+02
0.231721849201120E+02
0.228469308827872E+02
0.225181146003572E+02
0.258747668700259E+02
0.258416147212487E+02
0.257756551874060E+02
0.256775737654223E+02
0.255483886908671E+02
0.253894391103404E+02
0.252023696128270E+02
0.249891113678192E+02
0.247518601671887E+02
0.244930517092320E+02
0.242153344962149E+02
0.239215407405881E+02
0.236146556897041E+02
0.232977857844915E+02
0.229741260646144E+02
0.226469272218942E+02
0.260109311603364E+02
0.259779695923642E+02
0.259123894360707E+02
0.258148726336805E+02
0.256864321222918E+02
0.255284000466193E+02
0.253424123442476E+02
0.251303899512370E+02
0.248945169250768E+02
0.246372158233715E+02
0.243611207094651E+02
0.240690481799461E+02
0.237639668234939E+02
0.234489655259881E+02
0.231272210336777E+02
0.228019651752423E+02
0.261689362841474E+02
0.261361953205004E+02
0.260710543069389E+02
0.259741910694257E+02
0.258466124096314E+02
0.256896423645044E+02
0.255049068540555E+02
0.252943149652434E+02
0.250600371689659E+02
0.248044808084895E+02
0.245302632303732E+02
0.242401829525583E+02
0.239371892786485E+02
0.236243507726730E+02
0.233048230052795E+02
0.229818159710889E+02
0.263473581901009E+02
0.263148656348385E+02
0.262502191107145E+02
0.261540918066179E+02
0.260274836126086E+02
0.258717094323605E+02
0.256883839015403E+02
0.254794027600532E+02
0.252469211751586E+02
0.249933293537224E+02
0.247212258144842E+02
0.244333887146911E+02
0.241327456396245E+02
0.238223422685933E+02
0.235053103273761E+02
0.231848352255946E+02
0.265445803318010E+02
0.265123614982693E+02
0.264482598518440E+02
0.263529434693320E+02
0.262274046213081E+02
0.260729481429943E+02
0.258911762306515E+02
0.256839699114512E+02
0.254534674838209E+02
0.252020402664415E+02
0.249322660265688E+02
0.246469004816648E+02
0.243488472823023E+02
0.240411268891154E+02
0.237268447526993E+02
0.234091591935620E+02
0.267588053754201E+02
0.267268828428357E+02
0.266633710193864E+02
0.265689324451626E+02
0.264445511384954E+02
0.262915210303032E+02
0.261114308451970E+02
0.259061456773419E+02
0.256777855580466E+02
0.254287013531483E+02
0.251614483606248E+02
0.248787580020124E+02
0.245835080149649E+02
0.242786915588458E+02
0.239673856410769E+02
0.236527192598434E+02
0.269880686252398E+02
0.269564620254227E+02
0.268935791027358E+02
0.268000764903307E+02
0.266769294026708E+02
0.265254201377900E+02
0.263471230490313E+02
0.261438862342774E+02
0.259178102396109E+02
0.256712241153325E+02
0.254066591945021E+02
0.251268209871208E+02
0.248345595966098E+02
0.245328390695174E+02
0.242247060849102E+02
0.239132583774261E+02
0.272302531839012E+02
0.271989790200270E+02
0.271367578476469E+02
0.270442400806367E+02
0.269223916642722E+02
0.267724826492191E+02
0.265960722589790E+02
0.263949906988129E+02
0.261713180030200E+02
0.259273602583432E+02
0.256656235733564E+02
0.253887861864581E+02
0.250996691183828E+02
0.248012057791397E+02
0.244964109344794E+02
0.241883494241512E+02
0.274831068440803E+02
0.274521783428740E+02
0.273906452479360E+02
0.272991515022899E+02
0.271786534072920E+02
0.270304082714983E+02
0.268559595780004E+02
0.266571189182407E+02
0.264359449891067E+02
0.261947199908902E+02
0.259359237956288E+02
0.256622062779104E+02
0.253763582132651E+02
0.250812811529678E+02
0.247799566789252E+02
0.244754154291125E+02
0.277442606829546E+02
0.277136876812966E+02
0.276528622428737E+02
0.275624216513017E+02
0.274433122832301E+02
0.272967783345326E+02
0.271243470907733E+02
0.269278109899339E+02
0.267092067741024E+02
0.264707920674966E+02
0.262150197499675E+02
0.259445105174842E+02
0.256620240338912E+02
0.253704290816207E+02
0.250726731135519E+02
0.247717515946133E+02
0.280112493006212E+02
0.279810381670978E+02
0.279209330601189E+02
0.278315644799821E+02
0.277138686942038E+02
0.275690765427455E+02
0.273986988138755E+02
0.272045084386054E+02
0.269885198002817E+02
0.267529654964662E+02
0.265002709218488E+02
0.262330270630805E+02
0.259539619089433E+02
0.256659108823599E+02
0.253717866949035E+02
0.250745490104858E+02
0.282815326092628E+02
0.282516862007712E+02
0.281923071097270E+02
0.281040189948293E+02
0.279877479278521E+02
0.278447112788680E+02
0.276764031987646E+02
0.274845769469304E+02
0.272712243605482E+02
0.270385528023664E+02
0.267889599552598E+02
0.265250068538283E+02
0.262493895555417E+02
0.259649098567225E+02
0.256744454524624E+02
0.253809199252033E+02
0.255567991179575E+02
0.255232002234815E+02
0.254563513777979E+02
0.253569464056048E+02
0.252260159557228E+02
0.250649155792248E+02
0.248753101348880E+02
0.246591547696459E+02
0.244186727709658E+02
0.241563306296477E+02
0.238748106846232E+02
0.235769817454403E+02
0.232658681031038E+02
0.229446173459591E+02
0.226164673948376E+02
0.222847131614384E+02
0.255697463085695E+02
0.255361656517908E+02
0.254693531109464E+02
0.253700021709003E+02
0.252391429739141E+02
0.250781304016157E+02
0.248886284855787E+02
0.246725913941967E+02
0.244322412927814E+02
0.241700434153768E+02
0.238886787198592E+02
0.235910145219892E+02
0.232800735190505E+02
0.229590016197149E+02
0.226310349942824E+02
0.222994667491824E+02
0.256084731261431E+02
0.255749469970060E+02
0.255082430014789E+02
0.254090536083103E+02
0.252784074451385E+02
0.251176573919407E+02
0.249284650069496E+02
0.247127815327368E+02
0.244728257794008E+02
0.242110592233447E+02
0.239301586931834E+02
0.236329870383873E+02
0.233225621911938E+02
0.230020250382801E+02
0.226746065161392E+02
0.223435943337798E+02
0.256726360403339E+02
0.256392001746083E+02
0.255726758616069E+02
0.254737538878076E+02
0.253434603732647E+02
0.251831448840791E+02
0.249944648837232E+02
0.247793667709470E+02
0.245400638012134E+02
0.242790112301392E+02
0.239988790504274E+02
0.237025227177980E+02
0.233929522762823E+02
0.230733002991227E+02
0.227467890588839E+02
0.224166973299507E+02
0.257616649485351E+02
0.257283541655805E+02
0.256620788478969E+02
0.255635274502889E+02
0.254337226172549E+02
0.252740093218484E+02
0.250860393522544E+02
0.248717523938422E+02
0.246333540036581E+02
0.243732908158128E+02
0.240942233491807E+02
0.237989968127727E+02
0.234906103189120E+02
0.231721849201120E+02
0.228469308827872E+02
0.225181146003572E+02
0.258747668700259E+02
0.258416147212487E+02
0.257756551874060E+02
0.256775737654223E+02
0.255483886908671E+02
0.253894391103404E+02
0.252023696128270E+02
0.249891113678192E+02
0.247518601671887E+02
0.244930517092320E+02
0.242153344962149E+02
0.239215407405881E+02
0.236146556897041E+02
0.232977857844915E+02
0.229741260646144E+02
0.226469272218942E+02
0.260109311603364E+02
0.259779695923642E+02
0.259123894360707E+02
0.258148726336805E+02
0.256864321222918E+02
0.255284000466193E+02
0.253424123442476E+02
0.251303899512370E+02
0.248945169250768E+02
0.246372158233715E+02
0.243611207094651E+02
0.240690481799461E+02
0.237639668234939E+02
0.234489655259881E+02
0.231272210336777E+02
0.228019651752423E+02
0.261689362841474E+02
0.261361953205004E+02
0.260710543069389E+02
0.259741910694257E+02
0.258466124096314E+02
0.256896423645044E+02
0.255049068540555E+02
0.252943149652434E+02
0.250600371689659E+02
0.248044808084895E+02
0.245302632303732E+02
0.242401829525583E+02
0.239371892786485E+02
0.236243507726730E+02
0.233048230052795E+02
0.229818159710889E+02
0.263473581901009E+02
0.263148656348385E+02
0.262502191107145E+02
0.261540918066179E+02
0.260274836126086E+02
0.258717094323605E+02
0.256883839015403E+02
0.254794027600532E+02
0.252469211751586E+02
0.249933293537224E+02
0.247212258144842E+02
0.244333887146911E+02
0.241327456396245E+02
0.238223422685933E+02
0.235053103273761E+02
0.231848352255946E+02
0.265445803318010E+02
0.265123614982693E+02
0.264482598518440E+02
0.263529434693320E+02
0.262274046213081E+02
0.260729481429943E+02
0.258911762306515E+02
0.256839699114512E+02
0.254534674838209E+02
0.252020402664415E+02
0.249322660265688E+02
0.246469004816648E+02
0.243488472823023E+02
0.240411268891154E+02
0.237268447526993E+02
0.234091591935620E+02
0.267588053754201E+02
0.267268828428357E+02
0.266633710193864E+02
0.265689324451626E+02
0.264445511384954E+02
0.262915210303032E+02
0.261114308451970E+02
0.259061456773419E+02
0.256777855580466E+02
0.254287013531483E+02
0.251614483606248E+02
0.248787580020124E+02
0.245835080149649E+02
0.242786915588458E+02
0.239673856410769E+02
0.236527192598434E+02
0.269880686252398E+02
0.269564620254227E+02
0.268935791027358E+02
0.268000764903307E+02
0.266769294026708E+02
0.265254201377900E+02
0.263471230490313E+02
0.261438862342774E+02
0.259178102396109E+02
0.256712241153325E+02
0.254066591945021E+02
0.251268209871208E+02
0.248345595966098E+02
0.245328390695174E+02
0.242247060849102E+02
0.239132583774261E+02
0.272302531839012E+02
0.271989790200270E+02
0.271367578476469E+02
0.270442400806367E+02
0.269223916642722E+02
0.267724826492191E+02
0.265960722589790E+02
0.263949906988129E+02
0.261713180030200E+02
0.259273602583432E+02
0.256656235733564E+02
0.253887861864581E+02
0.250996691183828E+02
0.248012057791397E+02
0.244964109344794E+02
0.241883494241512E+02
0.274831068440803E+02
0.274521783428740E+02
0.273906452479360E+02
0.272991515022899E+02
0.271786534072920E+02
0.270304082714983E+02
0.268559595780004E+02
0.266571189182407E+02
0.264359449891067E+02
0.261947199908902E+02
0.259359237956288E+02
0.256622062779104E+02
0.253763582132651E+02
0.250812811529678E+02
0.247799566789252E+02
0.244754154291125E+02
0.277442606829546E+02
0.277136876812966E+02
0.276528622428737E+02
0.275624216513017E+02
0.274433122832301E+02
0.272967783345326E+02
0.271243470907733E+02
0.269278109899339E+02
0.267092067741024E+02
0.264707920674966E+02
0.262150197499675E+02
0.259445105174842E+02
0.256620240338912E+02
0.253704290816207E+02
0.250726731135519E+02
0.247717515946133E+02
0.280112493006212E+02
0.279810381670978E+02
0.279209330601189E+02
0.278315644799821E+02
0.277138686942038E+02
0.275690765427455E+02
0.273986988138755E+02
0.272045084386054E+02
0.269885198002817E+02
0.267529654964662E+02
0.265002709218488E+02
0.262330270630805E+02
0.259539619089433E+02
0.256659108823599E+02
0.253717866949035E+02
0.250745490104858E+02
0.282815326092628E+02
0.282516862007712E+02
0.281923071097270E+02
0.281040189948293E+02
0.279877479278521E+02
0.278447112788680E+02
0.276764031987646E+02
0.274845769469304E+02
0.272712243605482E+02
0.270385528023664E+02
0.267889599552598E+02
0.265250068538283E+02
0.262493895555417E+02
0.259649098567225E+02
0.256744454524624E+02
0.253809199252033E+02
0.255567991179575E+02
0.255232002234815E+02
0.254563513777979E+02
0.253569464056048E+02
0.252260159557228E+02
0.250649155792248E+02
0.248753101348880E+02
0.246591547696459E+02
0.244186727709658E+02
0.241563306296477E+02
0.238748106846232E+02
0.235769817454403E+02
0.232658681031038E+02
0.229446173459591E+02
0.226164673948376E+02
0.222847131614384E+02
0.255697463085695E+02
0.255361656517908E+02
0.254693531109464E+02
0.253700021709003E+02
0.252391429739141E+02
0.250781304016157E+02
0.248886284855787E+02
0.246725913941967E+02
0.244322412927814E+02
0.241700434153768E+02
0.238886787198592E+02
0.235910145219892E+02
0.232800735190505E+02
0.229590016197149E+02
0.226310349942824E+02
0.222994667491824E+02
0.256084731261431E+02
0.255749469970060E+02
0.255082430014789E+02
0.254090536083103E+02
0.252784074451385E+02
0.251176573919407E+02
0.249284650069496E+02
0.247127815327368E+02
0.244728257794008E+02
0.242110592233447E+02
0.239301586931834E+02
0.236329870383873E+02
0.233225621911938E+02
0.230020250382801E+02
0.226746065161392E+02
0.223435943337798E+02
0.256726360403339E+02
0.256392001746083E+02
0.255726758616069E+02
0.254737538878076E+02
0.253434603732647E+02
0.251831448840791E+02
0.249944648837232E+02
0.247793667709470E+02
0.245400638012134E+02
0.242790112301392E+02
0.239988790504274E+02
0.237025227177980E+02
0.233929522762823E+02
0.230733002991227E+02
0.227467890588839E+02
0.224166973299507E+02
0.257616649485351E+02
0.257283541655805E+02
0.256620788478969E+02
0.255635274502889E+02
0.254337226172549E+02
0.252740093218484E+02
0.250860393522544E+02
0.248717523938422E+02
0.246333540036581E+02
0.243732908158128E+02
0.240942233491807E+02
0.237989968127727E+02
0.234906103189120E+02
0.231721849201120E+02
0.228469308827872E+02
0.225181146003572E+02
0.258747668700259E+02
0.258416147212487E+02
0.257756551874060E+02
0.256775737654223E+02
0.255483886908671E+02
0.253894391103404E+02
0.252023696128270E+02
0.249891113678192E+02
0.247518601671887E+02
0.244930517092320E+02
0.242153344962149E+02
0.239215407405881E+02
0.236146556897041E+02
0.232977857844915E+02
0.229741260646144E+02
0.226469272218942E+02
0.260109311603364E+02
0.259779695923642E+02
0.259123894360707E+02
0.258148726336805E+02
0.256864321222918E+02
0.255284000466193E+02
0.253424123442476E+02
0.251303899512370E+02
0.248945169250768E+02
0.246372158233715E+02
0.243611207094651E+02
0.240690481799461E+02
0.237639668234939E+02
0.234489655259881E+02
0.231272210336777E+02
0.228019651752423E+02
0.261689362841474E+02
0.261361953205004E+02
0.260710543069389E+02
0.259741910694257E+02
0.258466124096314E+02
0.256896423645044E+02
0.255049068540555E+02
0.252943149652434E+02
0.250600371689659E+02
0.248044808084895E+02
0.245302632303732E+02
0.242401829525583E+02
0.239371892786485E+02
0.236243507726730E+02
0.233048230052795E+02
0.229818159710889E+02
0.263473581901009E+02
0.263148656348385E+02
0.262502191107145E+02
0.261540918066179E+02
0.260274836126086E+02
0.258717094323605E+02
0.256883839015403E+02
0.254794027600532E+02
0.252469211751586E+02
0.249933293537224E+02
0.247212258144842E+02
0.244333887146911E+02
0.241327456396245E+02
0.238223422685933E+02
0.235053103273761E+02
0.231848352255946E+02
0.265445803318010E+02
0.265123614982693E+02
0.264482598518440E+02
0.263529434693320E+02
0.262274046213081E+02
0.260729481429943E+02
0.258911762306515E+02
0.256839699114512E+02
0.254534674838209E+02
0.252020402664415E+02
0.249322660265688E+02
0.246469004816648E+02
0.243488472823023E+02
0.240411268891154E+02
0.237268447526993E+02
0.234091591935620E+02
0.267588053754201E+02
0.267268828428357E+02
0.266633710193864E+02
0.265689324451626E+02
0.264445511384954E+02
0.262915210303032E+02
0.261114308451970E+02
0.259061456773419E+02
0.256777855580466E+02
0.254287013531483E+02
0.251614483606248E+02
0.248787580020124E+02
0.245835080149649E+02
0.242786915588458E+02
0.239673856410769E+02
0.236527192598434E+02
0.269880686252398E+02
0.269564620254227E+02
0.268935791027358E+02
0.268000764903307E+02
0.266769294026708E+02
0.265254201377900E+02
0.263471230490313E+02
0.261438862342774E+02
0.259178102396109E+02
0.256712241153325E+02
0.254066591945021E+02
0.251268209871208E+02
0.248345595966098E+02
0.245328390695174E+02
0.242247060849102E+02
0.239132583774261E+02
0.272302531839012E+02
0.271989790200270E+02
0.271367578476469E+02
0.270442400806367E+02
0.269223916642722E+02
0.267724826492191E+02
0.265960722589790E+02
0.263949906988129E+02
0.261713180030200E+02
0.259273602583432E+02
0.256656235733564E+02
0.253887861864581E+02
0.250996691183828E+02
0.248012057791397E+02
0.244964109344794E+02
0.241883494241512E+02
0.274831068440803E+02
0.274521783428740E+02
0.273906452479360E+02
0.272991515022899E+02
0.271786534072920E+02
0.270304082714983E+02
0.268559595780004E+02
0.266571189182407E+02
0.264359449891067E+02
0.261947199908902E+02
0.259359237956288E+02
0.256622062779104E+02
0.253763582132651E+02
0.250812811529678E+02
0.247799566789252E+02
0.244754154291125E+02
0.277442606829546E+02
0.277136876812966E+02
0.276528622428737E+02
0.275624216513017E+02
0.274433122832301E+02
0.272967783345326E+02
0.271243470907733E+02
0.269278109899339E+02
0.267092067741024E+02
0.264707920674966E+02
0.262150197499675E+02
0.259445105174842E+02
0.256620240338912E+02
0.253704290816207E+02
0.250726731135519E+02
0.247717515946133E+02
0.280112493006212E+02
0.279810381670978E+02
0.279209330601189E+02
0.278315644799821E+02
0.277138686942038E+02
0.275690765427455E+02
0.273986988138755E+02
0.272045084386054E+02
0.269885198002817E+02
0.267529654964662E+02
0.265002709218488E+02
0.262330270630805E+02
0.259539619089433E+02
0.256659108823599E+02
0.253717866949035E+02
0.250745490104858E+02
0.282815326092628E+02
0.282516862007712E+02
0.281923071097270E+02
0.281040189948293E+02
0.279877479278521E+02
0.278447112788680E+02
0.276764031987646E+02
0.274845769469304E+02
0.272712243605482E+02
0.270385528023664E+02
0.267889599552598E+02
0.265250068538283E+02
0.262493895555417E+02
0.259649098567225E+02
0.256744454524624E+02
0.253809199252033E+02
0.255567991179575E+02
0.255232002234815E+02
0.254563513777979E+02
0.253569464056048E+02
0.252260159557228E+02
0.250649155792248E+02
0.248753101348880E+02
0.246591547696459E+02
0.244186727709658E+02
0.241563306296477E+02
0.238748106846232E+02
0.235769817454403E+02
0.232658681031038E+02
0.229446173459591E+02
0.226164673948376E+02
0.222847131614384E+02
0.255697463085695E+02
0.255361656517908E+02
0.254693531109464E+02
0.253700021709003E+02
0.252391429739141E+02
0.250781304016157E+02
0.248886284855787E+02
0.246725913941967E+02
0.244322412927814E+02
0.241700434153768E+02
0.238886787198592E+02
0.235910145219892E+02
0.232800735190505E+02
0.229590016197149E+02
0.226310349942824E+02
0.222994667491824E+02
0.256084731261431E+02
0.255749469970060E+02
0.255082430014789E+02
0.254090536083103E+02
0.252784074451385E+02
0.251176573919407E+02
0.249284650069496E+02
0.247127815327368E+02
0.244728257794008E+02
0.242110592233447E+02
0.239301586931834E+02
0.236329870383873E+02
0.233225621911938E+02
0.230020250382801E+02
0.226746065161392E+02
0.223435943337798E+02
0.256726360403339E+02
0.256392001746083E+02
0.255726758616069E+02
0.254737538878076E+02
0.253434603732647E+02
0.251831448840791E+02
0.249944648837232E+02
0.247793667709470E+02
0.245400638012134E+02
0.242790112301392E+02
0.239988790504274E+02
0.237025227177980E+02
0.233929522762823E+02
0.230733002991227E+02
0.227467890588839E+02
0.224166973299507E+02
0.257616649485351E+02
0.257283541655805E+02
0.256620788478969E+02
0.255635274502889E+02
0.254337226172549E+02
0.252740093218484E+02
0.250860393522544E+02
0.248717523938422E+02
0.246333540036581E+02
0.243732908158128E+02
0.240942233491807E+02
0.237989968127727E+02
0.234906103189120E+02
0.231721849201120E+02
0.228469308827872E+02
0.225181146003572E+02
0.258747668700259E+02
0.258416147212487E+02
0.257756551874060E+02
0.256775737654223E+02
0.255483886908671E+02
0.253894391103404E+02
0.252023696128270E+02
0.249891113678192E+02
0.247518601671887E+02
0.244930517092320E+02
0.242153344962149E+02
0.239215407405881E+02
0.236146556897041E+02
0.232977857844915E+02
0.229741260646144E+02
0.226469272218942E+02
0.260109311603364E+02
0.259779695923642E+02
0.259123894360707E+02
0.258148726336805E+02
0.256864321222918E+02
0.255284000466193E+02
0.253424123442476E+02
0.251303899512370E+02
0.248945169250768E+02
0.246372158233715E+02
0.243611207094651E+02
0.240690481799461E+02
0.237639668234939E+02
0.234489655259881E+02
0.231272210336777E+02
0.228019651752423E+02
0.261689362841474E+02
0.261361953205004E+02
0.260710543069389E+02
0.259741910694257E+02
0.258466124096314E+02
0.256896423645044E+02
0.255049068540555E+02
0.252943149652434E+02
0.250600371689659E+02
0.248044808084895E+02
0.245302632303732E+02
0.242401829525583E+02
0.239371892786485E+02
0.236243507726730E+02
0.233048230052795E+02
0.229818159710889E+02
0.263473581901009E+02
0.263148656348385E+02
0.262502191107145E+02
0.261540918066179E+02
0.260274836126086E+02
0.258717094323605E+02
0.256883839015403E+02
0.254794027600532E+02
0.252469211751586E+02
0.249933293537224E+02
0.247212258144842E+02
0.244333887146911E+02
0.241327456396245E+02
0.238223422685933E+02
0.235053103273761E+02
0.231848352255946E+02
0.265445803318010E+02
0.265123614982693E+02
0.264482598518440E+02
0.263529434693320E+02
0.262274046213081E+02
0.260729481429943E+02
0.258911762306515E+02
0.256839699114512E+02
0.254534674838209E+02
0.252020402664415E+02
0.249322660265688E+02
0.246469004816648E+02
0.243488472823023E+02
0.240411268891154E+02
0.237268447526993E+02
0.234091591935620E+02
0.267588053754201E+02
0.267268828428357E+02
0.266633710193864E+02
0.265689324451626E+02
0.264445511384954E+02
0.262915210303032E+02
0.261114308451970E+02
0.259061456773419E+02
0.256777855580466E+02
0.254287013531483E+02
0.251614483606248E+02
0.248787580020124E+02
0.245835080149649E+02
0.242786915588458E+02
0.239673856410769E+02
0.236527192598434E+02
0.269880686252398E+02
0.269564620254227E+02
0.268935791027358E+02
0.268000764903307E+02
0.266769294026708E+02
0.265254201377900E+02
0.263471230490313E+02
0.261438862342774E+02
0.259178102396109E+02
0.256712241153325E+02
0.254066591945021E+02
0.251268209871208E+02
0.248345595966098E+02
0.245328390695174E+02
0.242247060849102E+02
0.239132583774261E+02
0.272302531839012E+02
0.271989790200270E+02
0.271367578476469E+02
0.270442400806367E+02
0.269223916642722E+02
0.267724826492191E+02
0.265960722589790E+02
0.263949906988129E+02
0.261713180030200E+02
0.259273602583432E+02
0.256656235733564E+02
0.253887861864581E+02
0.250996691183828E+02
0.248012057791397E+02
0.244964109344794E+02
0.241883494241512E+02
0.274831068440803E+02
0.274521783428740E+02
0.273906452479360E+02
0.272991515022899E+02
0.271786534072920E+02
0.270304082714983E+02
0.268559595780004E+02
0.266571189182407E+02
0.264359449891067E+02
0.261947199908902E+02
0.259359237956288E+02
0.256622062779104E+02
0.253763582132651E+02
0.250812811529678E+02
0.247799566789252E+02
0.244754154291125E+02
0.277442606829546E+02
0.277136876812966E+02
0.276528622428737E+02
0.275624216513017E+02
0.274433122832301E+02
0.272967783345326E+02
0.271243470907733E+02
0.269278109899339E+02
0.267092067741024E+02
0.264707920674966E+02
0.262150197499675E+02
0.259445105174842E+02
0.256620240338912E+02
0.253704290816207E+02
0.250726731135519E+02
0.247717515946133E+02
0.280112493006212E+02
0.279810381670978E+02
0.279209330601189E+02
0.278315644799821E+02
0.277138686942038E+02
0.275690765427455E+02
0.273986988138755E+02
0.272045084386054E+02
0.269885198002817E+02
0.267529654964662E+02
0.265002709218488E+02
0.262330270630805E+02
0.259539619089433E+02
0.256659108823599E+02
0.253717866949035E+02
0.250745490104858E+02
0.282815326092628E+02
0.282516862007712E+02
0.281923071097270E+02
0.281040189948293E+02
0.279877479278521E+02
0.278447112788680E+02
0.276764031987646E+02
0.274845769469304E+02
0.272712243605482E+02
0.270385528023664E+02
0.267889599552598E+02
0.265250068538283E+02
0.262493895555417E+02
0.259649098567225E+02
0.256744454524624E+02
0.253809199252033E+02
</DataArray>
</PointData>
</Piece>
</RectilinearGrid>
</VTKFile>
