<?xml version="1.0"?>
<VTKFile type="RectilinearGrid" version="0.1" byte_order="LittleEndian">
<RectilinearGrid WholeExtent="0   63    0   63    0    3">
<Piece Extent="0   15    0   15    0    3">
<Coordinates>
<DataArray Name="x" type="Float32" format="ascii">
0.000000000000000E+00
0.100000000000000E+00
0.200000000000000E+00
0.300000000000000E+00
0.400000000000000E+00
0.500000000000000E+00
0.600000000000000E+00
0.700000000000000E+00
0.800000000000000E+00
0.900000000000000E+00
0.100000000000000E+01
0.110000000000000E+01
0.120000000000000E+01
0.130000000000000E+01
0.140000000000000E+01
0.150000000000000E+01
</DataArray>
<DataArray Name="y" type="Float32" format="ascii">
0.000000000000000E+00
0.100000000000000E+00
0.200000000000000E+00
0.300000000000000E+00
0.400000000000000E+00
0.500000000000000E+00
0.600000000000000E+00
0.700000000000000E+00
0.800000000000000E+00
0.900000000000000E+00
0.100000000000000E+01
0.110000000000000E+01
0.120000000000000E+01
0.130000000000000E+01
0.140000000000000E+01
0.150000000000000E+01
</DataArray>
<DataArray Name="z" type="Float32" format="ascii">
0.000000000000000E+00
0.100000000000000E+00
0.200000000000000E+00
0.300000000000000E+00
</DataArray>
</Coordinates>
<PointData Scalars="c">
<DataArray type="Float32" Name="c" format="ascii">
0.304593707096061E+02
0.304359502028836E+02
0.303893536908725E+02
0.303200673031234E+02
0.302288130980396E+02
0.301165406311571E+02
0.299844159281208E+02
0.298338080396048E+02
0.296662733909614E+02
0.294835381695529E+02
0.292874790168891E+02
0.290801023104524E+02
0.288635223312403E+02
0.286399386176247E+02
0.284116128043515E+02
0.281808452378164E+02
0.304227587057825E+02
0.303992962263698E+02
0.303526161724066E+02
0.302832054768506E+02
0.301917873946060E+02
0.300793130605094E+02
0.299469504486497E+02
0.297960709103264E+02
0.296282335035144E+02
0.294451673568895E+02
0.292487523356654E+02
0.290409982942770E+02
0.288240232121250E+02
0.286000305131962E+02
0.283712858686336E+02
0.281400937736784E+02
0.303621516080898E+02
0.303386196053957E+02
0.302918011730603E+02
0.302221845747104E+02
0.301304950469979E+02
0.300176863405425E+02
0.298849296566370E+02
0.297336001571210E+02
0.295652612604225E+02
0.293816469669899E+02
0.291846424815759E+02
0.289762634176617E+02
0.287586338805404E+02
0.285339637302332E+02
0.283045253237252E+02
0.280726300284152E+02
0.302781637442750E+02
0.302545353108673E+02
0.302075249438090E+02
0.301376227522188E+02
0.300455567212236E+02
0.299322842292754E+02
0.297989809535061E+02
0.296470273406666E+02
0.294779928568303E+02
0.292936182593179E+02
0.290957961585945E+02
0.288865501557782E+02
0.286680128527021E+02
0.284424030361971E+02
0.282120023366563E+02
0.279791316534300E+02
0.301716451874865E+02
0.301478943090744E+02
0.301006402285535E+02
0.300303753980891E+02
0.299378312923029E+02
0.298239698956122E+02
0.296899725678047E+02
0.295372264655714E+02
0.293673087334068E+02
0.291819687076307E+02
0.289831084016438E+02
0.287727615585068E+02
0.285530715683145E+02
0.283262685526616E+02
0.280946459169871E+02
0.278605366641761E+02
0.300436719662678E+02
0.300197737644266E+02
0.299722264524120E+02
0.299015253010425E+02
0.298084059827785E+02
0.296938360230240E+02
0.295590036178809E+02
0.294053039962842E+02
0.292343235402062E+02
0.290478219070312E+02
0.288477124226568E+02
0.286360410319391E+02
0.284149641045980E+02
0.281867253996269E+02
0.279536324898707E+02
0.277180329411451E+02
0.298955337511691E+02
0.298714647167651E+02
0.298235773805280E+02
0.297523702810961E+02
0.296585839577463E+02
0.295431923599526E+02
0.294073916097441E+02
0.292525862950306E+02
0.290803735079001E+02
0.288925248723958E+02
0.286909668308316E+02
0.284777594758812E+02
0.282550742272930E+02
0.280251706571466E+02
0.277903727663218E+02
0.275530450077100E+02
0.297287192133854E+02
0.297044574286897E+02
0.296561864428901E+02
0.295844084809064E+02
0.294898695720941E+02
0.293735509127610E+02
0.292366575660940E+02
0.290806046779306E+02
0.289070014227343E+02
0.287176329247346E+02
0.285144404238547E+02
0.282994999743546E+02
0.280749999758676E+02
0.278432178417256E+02
0.276064961083791E+02
0.273672182827402E+02
0.295448992837011E+02
0.295204246312197E+02
0.294717299535598E+02
0.293993215456811E+02
0.293039514986106E+02
0.291866090100762E+02
0.290485090155752E+02
0.288910783186004E+02
0.287159394347728E+02
0.285248923953342E+02
0.283198947802434E+02
0.281030402695620E+02
0.278765360137151E+02
0.276426791286003E+02
0.274038326205976E+02
0.271624010397425E+02
0.293459085671697E+02
0.293212029232697E+02
0.292720484798902E+02
0.291989559473936E+02
0.291026839928995E+02
0.289842304947019E+02
0.288448210987199E+02
0.286858952560201E+02
0.285090899565684E+02
0.283162214052025E+02
0.281092649107308E+02
0.278903332776600E+02
0.276616540021206E+02
0.274255455791203E+02
0.271843932275340E+02
0.269406243326364E+02
0.291337251898757E+02
0.291087726013516E+02
0.290591266382805E+02
0.289853027300394E+02
0.288880665720937E+02
0.287684253204100E+02
0.286276160682569E+02
0.284670917847607E+02
0.282885049308100E+02
0.280936889988629E+02
0.278846382482686E+02
0.276634859264692E+02
0.274324812786945E+02
0.271939656545143E+02
0.269503480190941E+02
0.267040801706141E+02
0.289104493685025E+02
0.288852362103115E+02
0.288350716074388E+02
0.287604759671547E+02
0.286622223989121E+02
0.285413278455502E+02
0.283990414761857E+02
0.282368305204975E+02
0.280563637604565E+02
0.278594929266368E+02
0.276482322714589E+02
0.274247366106350E+02
0.271912781365203E+02
0.269502223130323E+02
0.267040031614937E+02
0.264550982405983E+02
0.286782810011991E+02
0.286527961136979E+02
0.286020906579536E+02
0.285266902306975E+02
0.284273756705580E+02
0.283051741234639E+02
0.281613473481785E+02
0.279973774420205E+02
0.278149502032881E+02
0.276159363781290E+02
0.274023710649643E+02
0.271764315686705E+02
0.269404140093576E+02
0.266967089967449E+02
0.264477766810625E+02
0.261961214854818E+02
0.284394965795379E+02
0.284137313836742E+02
0.283624679983345E+02
0.282862373718199E+02
0.281858283134677E+02
0.280622784913001E+02
0.279168626475996E+02
0.277510782128207E+02
0.275666285348285E+02
0.273654039718216E+02
0.271494611228191E+02
0.269210004888752E+02
0.266823428710128E+02
0.264359048172590E+02
0.261841734313193E+02
0.259296808497518E+02
0.281964257165304E+02
0.281703743055914E+02
0.281185412329266E+02
0.280414629093665E+02
0.279399362803144E+02
0.278150097543420E+02
0.276679713270732E+02
0.275003340811219E+02
0.273138192795499E+02
0.271103373018193E+02
0.268919666969014E+02
0.266609316476719E+02
0.264195781537564E+02
0.261703492466061E+02
0.259157595509788E+02
0.256583695015767E+02
0.279514275752537E+02
0.279250867819427E+02
0.278726777167624E+02
0.277947423116686E+02
0.276920857355006E+02
0.275657672528902E+02
0.274170882556077E+02
0.272475776474594E+02
0.270589748006779E+02
0.268532103333939E+02
0.266323849836332E+02
0.263987468749343E+02
0.261546674819285E+02
0.259026166110644E+02
0.256451367123030E+02
0.253848168324360E+02
0.304593707096061E+02
0.304359502028836E+02
0.303893536908725E+02
0.303200673031234E+02
0.302288130980396E+02
0.301165406311571E+02
0.299844159281208E+02
0.298338080396048E+02
0.296662733909614E+02
0.294835381695529E+02
0.292874790168891E+02
0.290801023104524E+02
0.288635223312403E+02
0.286399386176247E+02
0.284116128043515E+02
0.281808452378164E+02
0.304227587057825E+02
0.303992962263698E+02
0.303526161724066E+02
0.302832054768506E+02
0.301917873946060E+02
0.300793130605094E+02
0.299469504486497E+02
0.297960709103264E+02
0.296282335035144E+02
0.294451673568895E+02
0.292487523356654E+02
0.290409982942770E+02
0.288240232121250E+02
0.286000305131962E+02
0.283712858686336E+02
0.281400937736784E+02
0.303621516080898E+02
0.303386196053957E+02
0.302918011730603E+02
0.302221845747104E+02
0.301304950469979E+02
0.300176863405425E+02
0.298849296566370E+02
0.297336001571210E+02
0.295652612604225E+02
0.293816469669899E+02
0.291846424815759E+02
0.289762634176617E+02
0.287586338805404E+02
0.285339637302332E+02
0.283045253237252E+02
0.280726300284152E+02
0.302781637442750E+02
0.302545353108673E+02
0.302075249438090E+02
0.301376227522188E+02
0.300455567212236E+02
0.299322842292754E+02
0.297989809535061E+02
0.296470273406666E+02
0.294779928568303E+02
0.292936182593179E+02
0.290957961585945E+02
0.288865501557782E+02
0.286680128527021E+02
0.284424030361971E+02
0.282120023366563E+02
0.279791316534300E+02
0.301716451874865E+02
0.301478943090744E+02
0.301006402285535E+02
0.300303753980891E+02
0.299378312923029E+02
0.298239698956122E+02
0.296899725678047E+02
0.295372264655714E+02
0.293673087334068E+02
0.291819687076307E+02
0.289831084016438E+02
0.287727615585068E+02
0.285530715683145E+02
0.283262685526616E+02
0.280946459169871E+02
0.278605366641761E+02
0.300436719662678E+02
0.300197737644266E+02
0.299722264524120E+02
0.299015253010425E+02
0.298084059827785E+02
0.296938360230240E+02
0.295590036178809E+02
0.294053039962842E+02
0.292343235402062E+02
0.290478219070312E+02
0.288477124226568E+02
0.286360410319391E+02
0.284149641045980E+02
0.281867253996269E+02
0.279536324898707E+02
0.277180329411451E+02
0.298955337511691E+02
0.298714647167651E+02
0.298235773805280E+02
0.297523702810961E+02
0.296585839577463E+02
0.295431923599526E+02
0.294073916097441E+02
0.292525862950306E+02
0.290803735079001E+02
0.288925248723958E+02
0.286909668308316E+02
0.284777594758812E+02
0.282550742272930E+02
0.280251706571466E+02
0.277903727663218E+02
0.275530450077100E+02
0.297287192133854E+02
0.297044574286897E+02
0.296561864428901E+02
0.295844084809064E+02
0.294898695720941E+02
0.293735509127610E+02
0.292366575660940E+02
0.290806046779306E+02
0.289070014227343E+02
0.287176329247346E+02
0.285144404238547E+02
0.282994999743546E+02
0.280749999758676E+02
0.278432178417256E+02
0.276064961083791E+02
0.273672182827402E+02
0.295448992837011E+02
0.295204246312197E+02
0.294717299535598E+02
0.293993215456811E+02
0.293039514986106E+02
0.291866090100762E+02
0.290485090155752E+02
0.288910783186004E+02
0.287159394347728E+02
0.285248923953342E+02
0.283198947802434E+02
0.281030402695620E+02
0.278765360137151E+02
0.276426791286003E+02
0.274038326205976E+02
0.271624010397425E+02
0.293459085671697E+02
0.293212029232697E+02
0.292720484798902E+02
0.291989559473936E+02
0.291026839928995E+02
0.289842304947019E+02
0.288448210987199E+02
0.286858952560201E+02
0.285090899565684E+02
0.283162214052025E+02
0.281092649107308E+02
0.278903332776600E+02
0.276616540021206E+02
0.274255455791203E+02
0.271843932275340E+02
0.269406243326364E+02
0.291337251898757E+02
0.291087726013516E+02
0.290591266382805E+02
0.289853027300394E+02
0.288880665720937E+02
0.287684253204100E+02
0.286276160682569E+02
0.284670917847607E+02
0.282885049308100E+02
0.280936889988629E+02
0.278846382482686E+02
0.276634859264692E+02
0.274324812786945E+02
0.271939656545143E+02
0.269503480190941E+02
0.267040801706141E+02
0.289104493685025E+02
0.288852362103115E+02
0.288350716074388E+02
0.287604759671547E+02
0.286622223989121E+02
0.285413278455502E+02
0.283990414761857E+02
0.282368305204975E+02
0.280563637604565E+02
0.278594929266368E+02
0.276482322714589E+02
0.274247366106350E+02
0.271912781365203E+02
0.269502223130323E+02
0.267040031614937E+02
0.264550982405983E+02
0.286782810011991E+02
0.286527961136979E+02
0.286020906579536E+02
0.285266902306975E+02
0.284273756705580E+02
0.283051741234639E+02
0.281613473481785E+02
0.279973774420205E+02
0.278149502032881E+02
0.276159363781290E+02
0.274023710649643E+02
0.271764315686705E+02
0.269404140093576E+02
0.266967089967449E+02
0.264477766810625E+02
0.261961214854818E+02
0.284394965795379E+02
0.284137313836742E+02
0.283624679983345E+02
0.282862373718199E+02
0.281858283134677E+02
0.280622784913001E+02
0.279168626475996E+02
0.277510782128207E+02
0.275666285348285E+02
0.273654039718216E+02
0.271494611228191E+02
0.269210004888752E+02
0.266823428710128E+02
0.264359048172590E+02
0.261841734313193E+02
0.259296808497518E+02
0.281964257165304E+02
0.281703743055914E+02
0.281185412329266E+02
0.280414629093665E+02
0.279399362803144E+02
0.278150097543420E+02
0.276679713270732E+02
0.275003340811219E+02
0.273138192795499E+02
0.271103373018193E+02
0.268919666969014E+02
0.266609316476719E+02
0.264195781537564E+02
0.261703492466061E+02
0.259157595509788E+02
0.256583695015767E+02
0.279514275752537E+02
0.279250867819427E+02
0.278726777167624E+02
0.277947423116686E+02
0.276920857355006E+02
0.275657672528902E+02
0.274170882556077E+02
0.272475776474594E+02
0.270589748006779E+02
0.268532103333939E+02
0.266323849836332E+02
0.263987468749343E+02
0.261546674819285E+02
0.259026166110644E+02
0.256451367123030E+02
0.253848168324360E+02
0.304593707096061E+02
0.304359502028836E+02
0.303893536908725E+02
0.303200673031234E+02
0.302288130980396E+02
0.301165406311571E+02
0.299844159281208E+02
0.298338080396048E+02
0.296662733909614E+02
0.294835381695529E+02
0.292874790168891E+02
0.290801023104524E+02
0.288635223312403E+02
0.286399386176247E+02
0.284116128043515E+02
0.281808452378164E+02
0.304227587057825E+02
0.303992962263698E+02
0.303526161724066E+02
0.302832054768506E+02
0.301917873946060E+02
0.300793130605094E+02
0.299469504486497E+02
0.297960709103264E+02
0.296282335035144E+02
0.294451673568895E+02
0.292487523356654E+02
0.290409982942770E+02
0.288240232121250E+02
0.286000305131962E+02
0.283712858686336E+02
0.281400937736784E+02
0.303621516080898E+02
0.303386196053957E+02
0.302918011730603E+02
0.302221845747104E+02
0.301304950469979E+02
0.300176863405425E+02
0.298849296566370E+02
0.297336001571210E+02
0.295652612604225E+02
0.293816469669899E+02
0.291846424815759E+02
0.289762634176617E+02
0.287586338805404E+02
0.285339637302332E+02
0.283045253237252E+02
0.280726300284152E+02
0.302781637442750E+02
0.302545353108673E+02
0.302075249438090E+02
0.301376227522188E+02
0.300455567212236E+02
0.299322842292754E+02
0.297989809535061E+02
0.296470273406666E+02
0.294779928568303E+02
0.292936182593179E+02
0.290957961585945E+02
0.288865501557782E+02
0.286680128527021E+02
0.284424030361971E+02
0.282120023366563E+02
0.279791316534300E+02
0.301716451874865E+02
0.301478943090744E+02
0.301006402285535E+02
0.300303753980891E+02
0.299378312923029E+02
0.298239698956122E+02
0.296899725678047E+02
0.295372264655714E+02
0.293673087334068E+02
0.291819687076307E+02
0.289831084016438E+02
0.287727615585068E+02
0.285530715683145E+02
0.283262685526616E+02
0.280946459169871E+02
0.278605366641761E+02
0.300436719662678E+02
0.300197737644266E+02
0.299722264524120E+02
0.299015253010425E+02
0.298084059827785E+02
0.296938360230240E+02
0.295590036178809E+02
0.294053039962842E+02
0.292343235402062E+02
0.290478219070312E+02
0.288477124226568E+02
0.286360410319391E+02
0.284149641045980E+02
0.281867253996269E+02
0.279536324898707E+02
0.277180329411451E+02
0.298955337511691E+02
0.298714647167651E+02
0.298235773805280E+02
0.297523702810961E+02
0.296585839577463E+02
0.295431923599526E+02
0.294073916097441E+02
0.292525862950306E+02
0.290803735079001E+02
0.288925248723958E+02
0.286909668308316E+02
0.284777594758812E+02
0.282550742272930E+02
0.280251706571466E+02
0.277903727663218E+02
0.275530450077100E+02
0.297287192133854E+02
0.297044574286897E+02
0.296561864428901E+02
0.295844084809064E+02
0.294898695720941E+02
0.293735509127610E+02
0.292366575660940E+02
0.290806046779306E+02
0.289070014227343E+02
0.287176329247346E+02
0.285144404238547E+02
0.282994999743546E+02
0.280749999758676E+02
0.278432178417256E+02
0.276064961083791E+02
0.273672182827402E+02
0.295448992837011E+02
0.295204246312197E+02
0.294717299535598E+02
0.293993215456811E+02
0.293039514986106E+02
0.291866090100762E+02
0.290485090155752E+02
0.288910783186004E+02
0.287159394347728E+02
0.285248923953342E+02
0.283198947802434E+02
0.281030402695620E+02
0.278765360137151E+02
0.276426791286003E+02
0.274038326205976E+02
0.271624010397425E+02
0.293459085671697E+02
0.293212029232697E+02
0.292720484798902E+02
0.291989559473936E+02
0.291026839928995E+02
0.289842304947019E+02
0.288448210987199E+02
0.286858952560201E+02
0.285090899565684E+02
0.283162214052025E+02
0.281092649107308E+02
0.278903332776600E+02
0.276616540021206E+02
0.274255455791203E+02
0.271843932275340E+02
0.269406243326364E+02
0.291337251898757E+02
0.291087726013516E+02
0.290591266382805E+02
0.289853027300394E+02
0.288880665720937E+02
0.287684253204100E+02
0.286276160682569E+02
0.284670917847607E+02
0.282885049308100E+02
0.280936889988629E+02
0.278846382482686E+02
0.276634859264692E+02
0.274324812786945E+02
0.271939656545143E+02
0.269503480190941E+02
0.267040801706141E+02
0.289104493685025E+02
0.288852362103115E+02
0.288350716074388E+02
0.287604759671547E+02
0.286622223989121E+02
0.285413278455502E+02
0.283990414761857E+02
0.282368305204975E+02
0.280563637604565E+02
0.278594929266368E+02
0.276482322714589E+02
0.274247366106350E+02
0.271912781365203E+02
0.269502223130323E+02
0.267040031614937E+02
0.264550982405983E+02
0.286782810011991E+02
0.286527961136979E+02
0.286020906579536E+02
0.285266902306975E+02
0.284273756705580E+02
0.283051741234639E+02
0.281613473481785E+02
0.279973774420205E+02
0.278149502032881E+02
0.276159363781290E+02
0.274023710649643E+02
0.271764315686705E+02
0.269404140093576E+02
0.266967089967449E+02
0.264477766810625E+02
0.261961214854818E+02
0.284394965795379E+02
0.284137313836742E+02
0.283624679983345E+02
0.282862373718199E+02
0.281858283134677E+02
0.280622784913001E+02
0.279168626475996E+02
0.277510782128207E+02
0.275666285348285E+02
0.273654039718216E+02
0.271494611228191E+02
0.269210004888752E+02
0.266823428710128E+02
0.264359048172590E+02
0.261841734313193E+02
0.259296808497518E+02
0.281964257165304E+02
0.281703743055914E+02
0.281185412329266E+02
0.280414629093665E+02
0.279399362803144E+02
0.278150097543420E+02
0.276679713270732E+02
0.275003340811219E+02
0.273138192795499E+02
0.271103373018193E+02
0.268919666969014E+02
0.266609316476719E+02
0.264195781537564E+02
0.261703492466061E+02
0.259157595509788E+02
0.256583695015767E+02
0.279514275752537E+02
0.279250867819427E+02
0.278726777167624E+02
0.277947423116686E+02
0.276920857355006E+02
0.275657672528902E+02
0.274170882556077E+02
0.272475776474594E+02
0.270589748006779E+02
0.268532103333939E+02
0.266323849836332E+02
0.263987468749343E+02
0.261546674819285E+02
0.259026166110644E+02
0.256451367123030E+02
0.253848168324360E+02
0.304593707096061E+02
0.304359502028836E+02
0.303893536908725E+02
0.303200673031234E+02
0.302288130980396E+02
0.301165406311571E+02
0.299844159281208E+02
0.298338080396048E+02
0.296662733909614E+02
0.294835381695529E+02
0.292874790168891E+02
0.290801023104524E+02
0.288635223312403E+02
0.286399386176247E+02
0.284116128043515E+02
0.281808452378164E+02
0.304227587057825E+02
0.303992962263698E+02
0.303526161724066E+02
0.302832054768506E+02
0.301917873946060E+02
0.300793130605094E+02
0.299469504486497E+02
0.297960709103264E+02
0.296282335035144E+02
0.294451673568895E+02
0.292487523356654E+02
0.290409982942770E+02
0.288240232121250E+02
0.286000305131962E+02
0.283712858686336E+02
0.281400937736784E+02
0.303621516080898E+02
0.303386196053957E+02
0.302918011730603E+02
0.302221845747104E+02
0.301304950469979E+02
0.300176863405425E+02
0.298849296566370E+02
0.297336001571210E+02
0.295652612604225E+02
0.293816469669899E+02
0.291846424815759E+02
0.289762634176617E+02
0.287586338805404E+02
0.285339637302332E+02
0.283045253237252E+02
0.280726300284152E+02
0.302781637442750E+02
0.302545353108673E+02
0.302075249438090E+02
0.301376227522188E+02
0.300455567212236E+02
0.299322842292754E+02
0.297989809535061E+02
0.296470273406666E+02
0.294779928568303E+02
0.292936182593179E+02
0.290957961585945E+02
0.288865501557782E+02
0.286680128527021E+02
0.284424030361971E+02
0.282120023366563E+02
0.279791316534300E+02
0.301716451874865E+02
0.301478943090744E+02
0.301006402285535E+02
0.300303753980891E+02
0.299378312923029E+02
0.298239698956122E+02
0.296899725678047E+02
0.295372264655714E+02
0.293673087334068E+02
0.291819687076307E+02
0.289831084016438E+02
0.287727615585068E+02
0.285530715683145E+02
0.283262685526616E+02
0.280946459169871E+02
0.278605366641761E+02
0.300436719662678E+02
0.300197737644266E+02
0.299722264524120E+02
0.299015253010425E+02
0.298084059827785E+02
0.296938360230240E+02
0.295590036178809E+02
0.294053039962842E+02
0.292343235402062E+02
0.290478219070312E+02
0.288477124226568E+02
0.286360410319391E+02
0.284149641045980E+02
0.281867253996269E+02
0.279536324898707E+02
0.277180329411451E+02
0.298955337511691E+02
0.298714647167651E+02
0.298235773805280E+02
0.297523702810961E+02
0.296585839577463E+02
0.295431923599526E+02
0.294073916097441E+02
0.292525862950306E+02
0.290803735079001E+02
0.288925248723958E+02
0.286909668308316E+02
0.284777594758812E+02
0.282550742272930E+02
0.280251706571466E+02
0.277903727663218E+02
0.275530450077100E+02
0.297287192133854E+02
0.297044574286897E+02
0.296561864428901E+02
0.295844084809064E+02
0.294898695720941E+02
0.293735509127610E+02
0.292366575660940E+02
0.290806046779306E+02
0.289070014227343E+02
0.287176329247346E+02
0.285144404238547E+02
0.282994999743546E+02
0.280749999758676E+02
0.278432178417256E+02
0.276064961083791E+02
0.273672182827402E+02
0.295448992837011E+02
0.295204246312197E+02
0.294717299535598E+02
0.293993215456811E+02
0.293039514986106E+02
0.291866090100762E+02
0.290485090155752E+02
0.288910783186004E+02
0.287159394347728E+02
0.285248923953342E+02
0.283198947802434E+02
0.281030402695620E+02
0.278765360137151E+02
0.276426791286003E+02
0.274038326205976E+02
0.271624010397425E+02
0.293459085671697E+02
0.293212029232697E+02
0.292720484798902E+02
0.291989559473936E+02
0.291026839928995E+02
0.289842304947019E+02
0.288448210987199E+02
0.286858952560201E+02
0.285090899565684E+02
0.283162214052025E+02
0.281092649107308E+02
0.278903332776600E+02
0.276616540021206E+02
0.274255455791203E+02
0.271843932275340E+02
0.269406243326364E+02
0.291337251898757E+02
0.291087726013516E+02
0.290591266382805E+02
0.289853027300394E+02
0.288880665720937E+02
0.287684253204100E+02
0.286276160682569E+02
0.284670917847607E+02
0.282885049308100E+02
0.280936889988629E+02
0.278846382482686E+02
0.276634859264692E+02
0.274324812786945E+02
0.271939656545143E+02
0.269503480190941E+02
0.267040801706141E+02
0.289104493685025E+02
0.288852362103115E+02
0.288350716074388E+02
0.287604759671547E+02
0.286622223989121E+02
0.285413278455502E+02
0.283990414761857E+02
0.282368305204975E+02
0.280563637604565E+02
0.278594929266368E+02
0.276482322714589E+02
0.274247366106350E+02
0.271912781365203E+02
0.269502223130323E+02
0.267040031614937E+02
0.264550982405983E+02
0.286782810011991E+02
0.286527961136979E+02
0.286020906579536E+02
0.285266902306975E+02
0.284273756705580E+02
0.283051741234639E+02
0.281613473481785E+02
0.279973774420205E+02
0.278149502032881E+02
0.276159363781290E+02
0.274023710649643E+02
0.271764315686705E+02
0.269404140093576E+02
0.266967089967449E+02
0.264477766810625E+02
0.261961214854818E+02
0.284394965795379E+02
0.284137313836742E+02
0.283624679983345E+02
0.282862373718199E+02
0.281858283134677E+02
0.280622784913001E+02
0.279168626475996E+02
0.277510782128207E+02
0.275666285348285E+02
0.273654039718216E+02
0.271494611228191E+02
0.269210004888752E+02
0.266823428710128E+02
0.264359048172590E+02
0.261841734313193E+02
0.259296808497518E+02
0.281964257165304E+02
0.281703743055914E+02
0.281185412329266E+02
0.280414629093665E+02
0.279399362803144E+02
0.278150097543420E+02
0.276679713270732E+02
0.275003340811219E+02
0.273138192795499E+02
0.271103373018193E+02
0.268919666969014E+02
0.266609316476719E+02
0.264195781537564E+02
0.261703492466061E+02
0.259157595509788E+02
0.256583695015767E+02
0.279514275752537E+02
0.279250867819427E+02
0.278726777167624E+02
0.277947423116686E+02
0.276920857355006E+02
0.275657672528902E+02
0.274170882556077E+02
0.272475776474594E+02
0.270589748006779E+02
0.268532103333939E+02
0.266323849836332E+02
0.263987468749343E+02
0.261546674819285E+02
0.259026166110644E+02
0.256451367123030E+02
0.253848168324360E+02
</DataArray>
</PointData>
</Piece>
</RectilinearGrid>
</VTKFile>
