<?xml version="1.0"?>
<VTKFile type="RectilinearGrid" version="0.1" byte_order="LittleEndian">
<RectilinearGrid WholeExtent="0   63    0   63    0    3">
<Piece Extent="47   63   15   31    0    3">
<Coordinates>
<DataArray Name="x" type="Float32" format="ascii">
0.470000000000000E+01
0.480000000000000E+01
0.490000000000000E+01
0.500000000000000E+01
0.510000000000000E+01
0.520000000000000E+01
0.530000000000000E+01
0.540000000000000E+01
0.550000000000000E+01
0.560000000000000E+01
0.570000000000000E+01
0.580000000000000E+01
0.590000000000000E+01
0.600000000000000E+01
0.610000000000000E+01
0.620000000000000E+01
0.630000000000000E+01
</DataArray>
<DataArray Name="y" type="Float32" format="ascii">
0.150000000000000E+01
0.160000000000000E+01
0.170000000000000E+01
0.180000000000000E+01
0.190000000000000E+01
0.200000000000000E+01
0.210000000000000E+01
0.220000000000000E+01
0.230000000000000E+01
0.240000000000000E+01
0.250000000000000E+01
0.260000000000000E+01
0.270000000000000E+01
0.280000000000000E+01
0.290000000000000E+01
0.300000000000000E+01
0.310000000000000E+01
</DataArray>
<DataArray Name="z" type="Float32" format="ascii">
0.000000000000000E+00
0.100000000000000E+00
0.200000000000000E+00
0.300000000000000E+00
</DataArray>
</Coordinates>
<PointData Scalars="c">
<DataArray type="Float32" Name="c" format="ascii">
0.255316476083809E+02
0.259289599260154E+02
0.263252050293424E+02
0.267166398844099E+02
0.270995180591300E+02
0.274701278451586E+02
0.278248318213776E+02
0.281601073490494E+02
0.284725874041107E+02
0.287591010795775E+02
0.290167130352045E+02
0.292427611364370E+02
0.294348915135849E+02
0.295910902872436E+02
0.297097112482782E+02
0.297894988498013E+02
0.298296059627453E+02
0.251483574767970E+02
0.255518442373916E+02
0.259541937272336E+02
0.263516071021960E+02
0.267402839713620E+02
0.271164609467449E+02
0.274764515928081E+02
0.278166872664463E+02
0.281337582542432E+02
0.284244545418633E+02
0.286858054949546E+02
0.289151176960070E+02
0.291100101705163E+02
0.292684462507928E+02
0.293887613678401E+02
0.294696861305672E+02
0.295103641454405E+02
0.247703287394330E+02
0.251799538949620E+02
0.255883715195240E+02
0.259917273138519E+02
0.263861672939289E+02
0.267678767640092E+02
0.271331206471796E+02
0.274782846648280E+02
0.277999167732942E+02
0.280947681945812E+02
0.283598333228738E+02
0.285923877538553E+02
0.287900236727316E+02
0.289506818517496E+02
0.290726795498650E+02
0.291547336757650E+02
0.291959786689482E+02
0.244011230147084E+02
0.248167905717061E+02
0.252311808444436E+02
0.256403849739408E+02
0.260404962701572E+02
0.264276495997174E+02
0.267980620889107E+02
0.271480746341216E+02
0.274741936295335E+02
0.277731322511034E+02
0.280418505810385E+02
0.282775938224149E+02
0.284779278425201E+02
0.286407712982509E+02
0.287644236385529E+02
0.288475883471280E+02
0.288893908817836E+02
0.240441761709996E+02
0.244657304565094E+02
0.248859389414751E+02
0.253008396395513E+02
0.257064745589161E+02
0.260989294921485E+02
0.264743750795651E+02
0.268291086390443E+02
0.271595961738200E+02
0.274625138994410E+02
0.277347885766795E+02
0.279736359027569E+02
0.281765962022053E+02
0.283415666733158E+02
0.284668294875466E+02
0.285510751072003E+02
0.285934202794600E+02
0.237027702503234E+02
0.241299968028967E+02
0.245558110160152E+02
0.249761997362088E+02
0.253871555818081E+02
0.257847171185919E+02
0.261650102680114E+02
0.265242904419548E+02
0.268589848172191E+02
0.271657340931234E+02
0.274414330216353E+02
0.276832689651373E+02
0.278887577259175E+02
0.280557759059825E+02
0.281825890969811E+02
0.282678752676544E+02
0.283107428086406E+02
0.233800081204906E+02
0.238126352231254E+02
0.242437861652866E+02
0.246693990998186E+02
0.250854196599806E+02
0.254878415008156E+02
0.258727480336421E+02
0.262363548485996E+02
0.265750522401209E+02
0.268854471810033E+02
0.271644040370285E+02
0.274090832800043E+02
0.276169774460628E+02
0.277859436004440E+02
0.279142316109558E+02
0.280005075996240E+02
0.280438720340896E+02
0.230787908352898E+02
0.235164916985158E+02
0.239526560279016E+02
0.243831762488418E+02
0.248039538869019E+02
0.252109404513959E+02
0.256001794745488E+02
0.259678492021604E+02
0.263103053523275E+02
0.266241232900981E+02
0.269061389125321E+02
0.271534875047217E+02
0.273636398162971E+02
0.275344346222147E+02
0.276641070723681E+02
0.277513122015842E+02
0.277951430632583E+02
0.228017976314665E+02
0.232441932249243E+02
0.236849960663694E+02
0.241200562867092E+02
0.245452346282281E+02
0.249564436436231E+02
0.253496900154897E+02
0.257211174931438E+02
0.260670498649762E+02
0.263840333163255E+02
0.266688774697694E+02
0.269186943709587E+02
0.271309346720953E+02
0.273034202793137E+02
0.274343727707560E+02
0.275224369588706E+02
0.275666990618104E+02
0.225514684531634E+02
0.229981309732052E+02
0.234431493518522E+02
0.238823352936120E+02
0.243115124981826E+02
0.247265581452193E+02
0.251234454672815E+02
0.254982869087862E+02
0.258473772907078E+02
0.261672363330030E+02
0.264546498339364E+02
0.267067087718403E+02
0.269208455838257E+02
0.270948668900104E+02
0.272269819721657E+02
0.273158263821542E+02
0.273604801465600E+02
0.223299888687469E+02
0.227804458180858E+02
0.232292126934040E+02
0.236720670391121E+02
0.241047996335920E+02
0.245232562272709E+02
0.249233803399179E+02
0.253012566158593E+02
0.256531541582784E+02
0.259755691964039E+02
0.262652663868419E+02
0.265193180167879E+02
0.267351403658412E+02
0.269105264970951E+02
0.270436747883326E+02
0.271332125803831E+02
0.271782144104375E+02
0.221392772307037E+02
0.225930160742999E+02
0.230450249390199E+02
0.234910518318074E+02
0.239268590712237E+02
0.243482652440247E+02
0.247511881957107E+02
0.251316885545338E+02
0.254860132113981E+02
0.258106381110719E+02
0.261023096578149E+02
0.263580840051023E+02
0.265753634881215E+02
0.267519294715788E+02
0.268859709253523E+02
0.269761081065377E+02
0.270214108169172E+02
0.219809739253200E+02
0.224374472749006E+02
0.228921572719498E+02
0.233408273184556E+02
0.237791960302984E+02
0.242030593754691E+02
0.246083138250825E+02
0.249910000173473E+02
0.253473463580107E+02
0.256738119140748E+02
0.259671279054539E+02
0.262243370659101E+02
0.264428301335998E+02
0.266203787453511E+02
0.267551640486591E+02
0.268458004112095E+02
0.268913536980121E+02
0.218564325636976E+02
0.223150638319635E+02
0.227719053314618E+02
0.232226610511331E+02
0.236630509086271E+02
0.240888530315965E+02
0.244959470349822E+02
0.248803577950023E+02
0.252382991442295E+02
0.255662168456660E+02
0.258608301517346E+02
0.261191712208533E+02
0.263386216532524E+02
0.265169454214222E+02
0.266523175103392E+02
0.267433476482965E+02
0.267890985992591E+02
0.217667129777801E+02
0.222269024328824E+02
0.226852830010812E+02
0.231375446556509E+02
0.235793938162561E+02
0.240065957334118E+02
0.244150178567522E+02
0.248006736882240E+02
0.251597665452290E+02
0.254887325924306E+02
0.257842824490621E+02
0.260434406453727E+02
0.262635821908379E+02
0.264424655304514E+02
0.265782612050907E+02
0.266695755975258E+02
0.267154692356055E+02
0.217125759029507E+02
0.221737070446135E+02
0.226330177277101E+02
0.230861894560233E+02
0.235289204932054E+02
0.239569683095270E+02
0.243661930050527E+02
0.247526012106053E+02
0.251123898919342E+02
0.254419894162936E+02
0.257381051888278E+02
0.259977571329898E+02
0.262183162782093E+02
0.263975377316913E+02
0.265335893508543E+02
0.266250754984284E+02
0.266710553521203E+02
0.216944792510342E+02
0.221559254221193E+02
0.226155472605171E+02
0.230690234367901E+02
0.235120494863448E+02
0.239403802770083E+02
0.243498734505598E+02
0.247365333396594E+02
0.250965547857226E+02
0.254263662171114E+02
0.257226712952262E+02
0.259824884029233E+02
0.262031872386722E+02
0.263825217935230E+02
0.265186590275666E+02
0.266102026280594E+02
0.266562113212453E+02
0.255316476083809E+02
0.259289599260154E+02
0.263252050293424E+02
0.267166398844099E+02
0.270995180591300E+02
0.274701278451586E+02
0.278248318213776E+02
0.281601073490494E+02
0.284725874041107E+02
0.287591010795775E+02
0.290167130352045E+02
0.292427611364370E+02
0.294348915135849E+02
0.295910902872436E+02
0.297097112482782E+02
0.297894988498013E+02
0.298296059627453E+02
0.251483574767970E+02
0.255518442373916E+02
0.259541937272336E+02
0.263516071021960E+02
0.267402839713620E+02
0.271164609467449E+02
0.274764515928081E+02
0.278166872664463E+02
0.281337582542432E+02
0.284244545418633E+02
0.286858054949546E+02
0.289151176960070E+02
0.291100101705163E+02
0.292684462507928E+02
0.293887613678401E+02
0.294696861305672E+02
0.295103641454405E+02
0.247703287394330E+02
0.251799538949620E+02
0.255883715195240E+02
0.259917273138519E+02
0.263861672939289E+02
0.267678767640092E+02
0.271331206471796E+02
0.274782846648280E+02
0.277999167732942E+02
0.280947681945812E+02
0.283598333228738E+02
0.285923877538553E+02
0.287900236727316E+02
0.289506818517496E+02
0.290726795498650E+02
0.291547336757650E+02
0.291959786689482E+02
0.244011230147084E+02
0.248167905717061E+02
0.252311808444436E+02
0.256403849739408E+02
0.260404962701572E+02
0.264276495997174E+02
0.267980620889107E+02
0.271480746341216E+02
0.274741936295335E+02
0.277731322511034E+02
0.280418505810385E+02
0.282775938224149E+02
0.284779278425201E+02
0.286407712982509E+02
0.287644236385529E+02
0.288475883471280E+02
0.288893908817836E+02
0.240441761709996E+02
0.244657304565094E+02
0.248859389414751E+02
0.253008396395513E+02
0.257064745589161E+02
0.260989294921485E+02
0.264743750795651E+02
0.268291086390443E+02
0.271595961738200E+02
0.274625138994410E+02
0.277347885766795E+02
0.279736359027569E+02
0.281765962022053E+02
0.283415666733158E+02
0.284668294875466E+02
0.285510751072003E+02
0.285934202794600E+02
0.237027702503234E+02
0.241299968028967E+02
0.245558110160152E+02
0.249761997362088E+02
0.253871555818081E+02
0.257847171185919E+02
0.261650102680114E+02
0.265242904419548E+02
0.268589848172191E+02
0.271657340931234E+02
0.274414330216353E+02
0.276832689651373E+02
0.278887577259175E+02
0.280557759059825E+02
0.281825890969811E+02
0.282678752676544E+02
0.283107428086406E+02
0.233800081204906E+02
0.238126352231254E+02
0.242437861652866E+02
0.246693990998186E+02
0.250854196599806E+02
0.254878415008156E+02
0.258727480336421E+02
0.262363548485996E+02
0.265750522401209E+02
0.268854471810033E+02
0.271644040370285E+02
0.274090832800043E+02
0.276169774460628E+02
0.277859436004440E+02
0.279142316109558E+02
0.280005075996240E+02
0.280438720340896E+02
0.230787908352898E+02
0.235164916985158E+02
0.239526560279016E+02
0.243831762488418E+02
0.248039538869019E+02
0.252109404513959E+02
0.256001794745488E+02
0.259678492021604E+02
0.263103053523275E+02
0.266241232900981E+02
0.269061389125321E+02
0.271534875047217E+02
0.273636398162971E+02
0.275344346222147E+02
0.276641070723681E+02
0.277513122015842E+02
0.277951430632583E+02
0.228017976314665E+02
0.232441932249243E+02
0.236849960663694E+02
0.241200562867092E+02
0.245452346282281E+02
0.249564436436231E+02
0.253496900154897E+02
0.257211174931438E+02
0.260670498649762E+02
0.263840333163255E+02
0.266688774697694E+02
0.269186943709587E+02
0.271309346720953E+02
0.273034202793137E+02
0.274343727707560E+02
0.275224369588706E+02
0.275666990618104E+02
0.225514684531634E+02
0.229981309732052E+02
0.234431493518522E+02
0.238823352936120E+02
0.243115124981826E+02
0.247265581452193E+02
0.251234454672815E+02
0.254982869087862E+02
0.258473772907078E+02
0.261672363330030E+02
0.264546498339364E+02
0.267067087718403E+02
0.269208455838257E+02
0.270948668900104E+02
0.272269819721657E+02
0.273158263821542E+02
0.273604801465600E+02
0.223299888687469E+02
0.227804458180858E+02
0.232292126934040E+02
0.236720670391121E+02
0.241047996335920E+02
0.245232562272709E+02
0.249233803399179E+02
0.253012566158593E+02
0.256531541582784E+02
0.259755691964039E+02
0.262652663868419E+02
0.265193180167879E+02
0.267351403658412E+02
0.269105264970951E+02
0.270436747883326E+02
0.271332125803831E+02
0.271782144104375E+02
0.221392772307037E+02
0.225930160742999E+02
0.230450249390199E+02
0.234910518318074E+02
0.239268590712237E+02
0.243482652440247E+02
0.247511881957107E+02
0.251316885545338E+02
0.254860132113981E+02
0.258106381110719E+02
0.261023096578149E+02
0.263580840051023E+02
0.265753634881215E+02
0.267519294715788E+02
0.268859709253523E+02
0.269761081065377E+02
0.270214108169172E+02
0.219809739253200E+02
0.224374472749006E+02
0.228921572719498E+02
0.233408273184556E+02
0.237791960302984E+02
0.242030593754691E+02
0.246083138250825E+02
0.249910000173473E+02
0.253473463580107E+02
0.256738119140748E+02
0.259671279054539E+02
0.262243370659101E+02
0.264428301335998E+02
0.266203787453511E+02
0.267551640486591E+02
0.268458004112095E+02
0.268913536980121E+02
0.218564325636976E+02
0.223150638319635E+02
0.227719053314618E+02
0.232226610511331E+02
0.236630509086271E+02
0.240888530315965E+02
0.244959470349822E+02
0.248803577950023E+02
0.252382991442295E+02
0.255662168456660E+02
0.258608301517346E+02
0.261191712208533E+02
0.263386216532524E+02
0.265169454214222E+02
0.266523175103392E+02
0.267433476482965E+02
0.267890985992591E+02
0.217667129777801E+02
0.222269024328824E+02
0.226852830010812E+02
0.231375446556509E+02
0.235793938162561E+02
0.240065957334118E+02
0.244150178567522E+02
0.248006736882240E+02
0.251597665452290E+02
0.254887325924306E+02
0.257842824490621E+02
0.260434406453727E+02
0.262635821908379E+02
0.264424655304514E+02
0.265782612050907E+02
0.266695755975258E+02
0.267154692356055E+02
0.217125759029507E+02
0.221737070446135E+02
0.226330177277101E+02
0.230861894560233E+02
0.235289204932054E+02
0.239569683095270E+02
0.243661930050527E+02
0.247526012106053E+02
0.251123898919342E+02
0.254419894162936E+02
0.257381051888278E+02
0.259977571329898E+02
0.262183162782093E+02
0.263975377316913E+02
0.265335893508543E+02
0.266250754984284E+02
0.266710553521203E+02
0.216944792510342E+02
0.221559254221193E+02
0.226155472605171E+02
0.230690234367901E+02
0.235120494863448E+02
0.239403802770083E+02
0.243498734505598E+02
0.247365333396594E+02
0.250965547857226E+02
0.254263662171114E+02
0.257226712952262E+02
0.259824884029233E+02
0.262031872386722E+02
0.263825217935230E+02
0.265186590275666E+02
0.266102026280594E+02
0.266562113212453E+02
0.255316476083809E+02
0.259289599260154E+02
0.263252050293424E+02
0.267166398844099E+02
0.270995180591300E+02
0.274701278451586E+02
0.278248318213776E+02
0.281601073490494E+02
0.284725874041107E+02
0.287591010795775E+02
0.290167130352045E+02
0.292427611364370E+02
0.294348915135849E+02
0.295910902872436E+02
0.297097112482782E+02
0.297894988498013E+02
0.298296059627453E+02
0.251483574767970E+02
0.255518442373916E+02
0.259541937272336E+02
0.263516071021960E+02
0.267402839713620E+02
0.271164609467449E+02
0.274764515928081E+02
0.278166872664463E+02
0.281337582542432E+02
0.284244545418633E+02
0.286858054949546E+02
0.289151176960070E+02
0.291100101705163E+02
0.292684462507928E+02
0.293887613678401E+02
0.294696861305672E+02
0.295103641454405E+02
0.247703287394330E+02
0.251799538949620E+02
0.255883715195240E+02
0.259917273138519E+02
0.263861672939289E+02
0.267678767640092E+02
0.271331206471796E+02
0.274782846648280E+02
0.277999167732942E+02
0.280947681945812E+02
0.283598333228738E+02
0.285923877538553E+02
0.287900236727316E+02
0.289506818517496E+02
0.290726795498650E+02
0.291547336757650E+02
0.291959786689482E+02
0.244011230147084E+02
0.248167905717061E+02
0.252311808444436E+02
0.256403849739408E+02
0.260404962701572E+02
0.264276495997174E+02
0.267980620889107E+02
0.271480746341216E+02
0.274741936295335E+02
0.277731322511034E+02
0.280418505810385E+02
0.282775938224149E+02
0.284779278425201E+02
0.286407712982509E+02
0.287644236385529E+02
0.288475883471280E+02
0.288893908817836E+02
0.240441761709996E+02
0.244657304565094E+02
0.248859389414751E+02
0.253008396395513E+02
0.257064745589161E+02
0.260989294921485E+02
0.264743750795651E+02
0.268291086390443E+02
0.271595961738200E+02
0.274625138994410E+02
0.277347885766795E+02
0.279736359027569E+02
0.281765962022053E+02
0.283415666733158E+02
0.284668294875466E+02
0.285510751072003E+02
0.285934202794600E+02
0.237027702503234E+02
0.241299968028967E+02
0.245558110160152E+02
0.249761997362088E+02
0.253871555818081E+02
0.257847171185919E+02
0.261650102680114E+02
0.265242904419548E+02
0.268589848172191E+02
0.271657340931234E+02
0.274414330216353E+02
0.276832689651373E+02
0.278887577259175E+02
0.280557759059825E+02
0.281825890969811E+02
0.282678752676544E+02
0.283107428086406E+02
0.233800081204906E+02
0.238126352231254E+02
0.242437861652866E+02
0.246693990998186E+02
0.250854196599806E+02
0.254878415008156E+02
0.258727480336421E+02
0.262363548485996E+02
0.265750522401209E+02
0.268854471810033E+02
0.271644040370285E+02
0.274090832800043E+02
0.276169774460628E+02
0.277859436004440E+02
0.279142316109558E+02
0.280005075996240E+02
0.280438720340896E+02
0.230787908352898E+02
0.235164916985158E+02
0.239526560279016E+02
0.243831762488418E+02
0.248039538869019E+02
0.252109404513959E+02
0.256001794745488E+02
0.259678492021604E+02
0.263103053523275E+02
0.266241232900981E+02
0.269061389125321E+02
0.271534875047217E+02
0.273636398162971E+02
0.275344346222147E+02
0.276641070723681E+02
0.277513122015842E+02
0.277951430632583E+02
0.228017976314665E+02
0.232441932249243E+02
0.236849960663694E+02
0.241200562867092E+02
0.245452346282281E+02
0.249564436436231E+02
0.253496900154897E+02
0.257211174931438E+02
0.260670498649762E+02
0.263840333163255E+02
0.266688774697694E+02
0.269186943709587E+02
0.271309346720953E+02
0.273034202793137E+02
0.274343727707560E+02
0.275224369588706E+02
0.275666990618104E+02
0.225514684531634E+02
0.229981309732052E+02
0.234431493518522E+02
0.238823352936120E+02
0.243115124981826E+02
0.247265581452193E+02
0.251234454672815E+02
0.254982869087862E+02
0.258473772907078E+02
0.261672363330030E+02
0.264546498339364E+02
0.267067087718403E+02
0.269208455838257E+02
0.270948668900104E+02
0.272269819721657E+02
0.273158263821542E+02
0.273604801465600E+02
0.223299888687469E+02
0.227804458180858E+02
0.232292126934040E+02
0.236720670391121E+02
0.241047996335920E+02
0.245232562272709E+02
0.249233803399179E+02
0.253012566158593E+02
0.256531541582784E+02
0.259755691964039E+02
0.262652663868419E+02
0.265193180167879E+02
0.267351403658412E+02
0.269105264970951E+02
0.270436747883326E+02
0.271332125803831E+02
0.271782144104375E+02
0.221392772307037E+02
0.225930160742999E+02
0.230450249390199E+02
0.234910518318074E+02
0.239268590712237E+02
0.243482652440247E+02
0.247511881957107E+02
0.251316885545338E+02
0.254860132113981E+02
0.258106381110719E+02
0.261023096578149E+02
0.263580840051023E+02
0.265753634881215E+02
0.267519294715788E+02
0.268859709253523E+02
0.269761081065377E+02
0.270214108169172E+02
0.219809739253200E+02
0.224374472749006E+02
0.228921572719498E+02
0.233408273184556E+02
0.237791960302984E+02
0.242030593754691E+02
0.246083138250825E+02
0.249910000173473E+02
0.253473463580107E+02
0.256738119140748E+02
0.259671279054539E+02
0.262243370659101E+02
0.264428301335998E+02
0.266203787453511E+02
0.267551640486591E+02
0.268458004112095E+02
0.268913536980121E+02
0.218564325636976E+02
0.223150638319635E+02
0.227719053314618E+02
0.232226610511331E+02
0.236630509086271E+02
0.240888530315965E+02
0.244959470349822E+02
0.248803577950023E+02
0.252382991442295E+02
0.255662168456660E+02
0.258608301517346E+02
0.261191712208533E+02
0.263386216532524E+02
0.265169454214222E+02
0.266523175103392E+02
0.267433476482965E+02
0.267890985992591E+02
0.217667129777801E+02
0.222269024328824E+02
0.226852830010812E+02
0.231375446556509E+02
0.235793938162561E+02
0.240065957334118E+02
0.244150178567522E+02
0.248006736882240E+02
0.251597665452290E+02
0.254887325924306E+02
0.257842824490621E+02
0.260434406453727E+02
0.262635821908379E+02
0.264424655304514E+02
0.265782612050907E+02
0.266695755975258E+02
0.267154692356055E+02
0.217125759029507E+02
0.221737070446135E+02
0.226330177277101E+02
0.230861894560233E+02
0.235289204932054E+02
0.239569683095270E+02
0.243661930050527E+02
0.247526012106053E+02
0.251123898919342E+02
0.254419894162936E+02
0.257381051888278E+02
0.259977571329898E+02
0.262183162782093E+02
0.263975377316913E+02
0.265335893508543E+02
0.266250754984284E+02
0.266710553521203E+02
0.216944792510342E+02
0.221559254221193E+02
0.226155472605171E+02
0.230690234367901E+02
0.235120494863448E+02
0.239403802770083E+02
0.243498734505598E+02
0.247365333396594E+02
0.250965547857226E+02
0.254263662171114E+02
0.257226712952262E+02
0.259824884029233E+02
0.262031872386722E+02
0.263825217935230E+02
0.265186590275666E+02
0.266102026280594E+02
0.266562113212453E+02
0.255316476083809E+02
0.259289599260154E+02
0.263252050293424E+02
0.267166398844099E+02
0.270995180591300E+02
0.274701278451586E+02
0.278248318213776E+02
0.281601073490494E+02
0.284725874041107E+02
0.287591010795775E+02
0.290167130352045E+02
0.292427611364370E+02
0.294348915135849E+02
0.295910902872436E+02
0.297097112482782E+02
0.297894988498013E+02
0.298296059627453E+02
0.251483574767970E+02
0.255518442373916E+02
0.259541937272336E+02
0.263516071021960E+02
0.267402839713620E+02
0.271164609467449E+02
0.274764515928081E+02
0.278166872664463E+02
0.281337582542432E+02
0.284244545418633E+02
0.286858054949546E+02
0.289151176960070E+02
0.291100101705163E+02
0.292684462507928E+02
0.293887613678401E+02
0.294696861305672E+02
0.295103641454405E+02
0.247703287394330E+02
0.251799538949620E+02
0.255883715195240E+02
0.259917273138519E+02
0.263861672939289E+02
0.267678767640092E+02
0.271331206471796E+02
0.274782846648280E+02
0.277999167732942E+02
0.280947681945812E+02
0.283598333228738E+02
0.285923877538553E+02
0.287900236727316E+02
0.289506818517496E+02
0.290726795498650E+02
0.291547336757650E+02
0.291959786689482E+02
0.244011230147084E+02
0.248167905717061E+02
0.252311808444436E+02
0.256403849739408E+02
0.260404962701572E+02
0.264276495997174E+02
0.267980620889107E+02
0.271480746341216E+02
0.274741936295335E+02
0.277731322511034E+02
0.280418505810385E+02
0.282775938224149E+02
0.284779278425201E+02
0.286407712982509E+02
0.287644236385529E+02
0.288475883471280E+02
0.288893908817836E+02
0.240441761709996E+02
0.244657304565094E+02
0.248859389414751E+02
0.253008396395513E+02
0.257064745589161E+02
0.260989294921485E+02
0.264743750795651E+02
0.268291086390443E+02
0.271595961738200E+02
0.274625138994410E+02
0.277347885766795E+02
0.279736359027569E+02
0.281765962022053E+02
0.283415666733158E+02
0.284668294875466E+02
0.285510751072003E+02
0.285934202794600E+02
0.237027702503234E+02
0.241299968028967E+02
0.245558110160152E+02
0.249761997362088E+02
0.253871555818081E+02
0.257847171185919E+02
0.261650102680114E+02
0.265242904419548E+02
0.268589848172191E+02
0.271657340931234E+02
0.274414330216353E+02
0.276832689651373E+02
0.278887577259175E+02
0.280557759059825E+02
0.281825890969811E+02
0.282678752676544E+02
0.283107428086406E+02
0.233800081204906E+02
0.238126352231254E+02
0.242437861652866E+02
0.246693990998186E+02
0.250854196599806E+02
0.254878415008156E+02
0.258727480336421E+02
0.262363548485996E+02
0.265750522401209E+02
0.268854471810033E+02
0.271644040370285E+02
0.274090832800043E+02
0.276169774460628E+02
0.277859436004440E+02
0.279142316109558E+02
0.280005075996240E+02
0.280438720340896E+02
0.230787908352898E+02
0.235164916985158E+02
0.239526560279016E+02
0.243831762488418E+02
0.248039538869019E+02
0.252109404513959E+02
0.256001794745488E+02
0.259678492021604E+02
0.263103053523275E+02
0.266241232900981E+02
0.269061389125321E+02
0.271534875047217E+02
0.273636398162971E+02
0.275344346222147E+02
0.276641070723681E+02
0.277513122015842E+02
0.277951430632583E+02
0.228017976314665E+02
0.232441932249243E+02
0.236849960663694E+02
0.241200562867092E+02
0.245452346282281E+02
0.249564436436231E+02
0.253496900154897E+02
0.257211174931438E+02
0.260670498649762E+02
0.263840333163255E+02
0.266688774697694E+02
0.269186943709587E+02
0.271309346720953E+02
0.273034202793137E+02
0.274343727707560E+02
0.275224369588706E+02
0.275666990618104E+02
0.225514684531634E+02
0.229981309732052E+02
0.234431493518522E+02
0.238823352936120E+02
0.243115124981826E+02
0.247265581452193E+02
0.251234454672815E+02
0.254982869087862E+02
0.258473772907078E+02
0.261672363330030E+02
0.264546498339364E+02
0.267067087718403E+02
0.269208455838257E+02
0.270948668900104E+02
0.272269819721657E+02
0.273158263821542E+02
0.273604801465600E+02
0.223299888687469E+02
0.227804458180858E+02
0.232292126934040E+02
0.236720670391121E+02
0.241047996335920E+02
0.245232562272709E+02
0.249233803399179E+02
0.253012566158593E+02
0.256531541582784E+02
0.259755691964039E+02
0.262652663868419E+02
0.265193180167879E+02
0.267351403658412E+02
0.269105264970951E+02
0.270436747883326E+02
0.271332125803831E+02
0.271782144104375E+02
0.221392772307037E+02
0.225930160742999E+02
0.230450249390199E+02
0.234910518318074E+02
0.239268590712237E+02
0.243482652440247E+02
0.247511881957107E+02
0.251316885545338E+02
0.254860132113981E+02
0.258106381110719E+02
0.261023096578149E+02
0.263580840051023E+02
0.265753634881215E+02
0.267519294715788E+02
0.268859709253523E+02
0.269761081065377E+02
0.270214108169172E+02
0.219809739253200E+02
0.224374472749006E+02
0.228921572719498E+02
0.233408273184556E+02
0.237791960302984E+02
0.242030593754691E+02
0.246083138250825E+02
0.249910000173473E+02
0.253473463580107E+02
0.256738119140748E+02
0.259671279054539E+02
0.262243370659101E+02
0.264428301335998E+02
0.266203787453511E+02
0.267551640486591E+02
0.268458004112095E+02
0.268913536980121E+02
0.218564325636976E+02
0.223150638319635E+02
0.227719053314618E+02
0.232226610511331E+02
0.236630509086271E+02
0.240888530315965E+02
0.244959470349822E+02
0.248803577950023E+02
0.252382991442295E+02
0.255662168456660E+02
0.258608301517346E+02
0.261191712208533E+02
0.263386216532524E+02
0.265169454214222E+02
0.266523175103392E+02
0.267433476482965E+02
0.267890985992591E+02
0.217667129777801E+02
0.222269024328824E+02
0.226852830010812E+02
0.231375446556509E+02
0.235793938162561E+02
0.240065957334118E+02
0.244150178567522E+02
0.248006736882240E+02
0.251597665452290E+02
0.254887325924306E+02
0.257842824490621E+02
0.260434406453727E+02
0.262635821908379E+02
0.264424655304514E+02
0.265782612050907E+02
0.266695755975258E+02
0.267154692356055E+02
0.217125759029507E+02
0.221737070446135E+02
0.226330177277101E+02
0.230861894560233E+02
0.235289204932054E+02
0.239569683095270E+02
0.243661930050527E+02
0.247526012106053E+02
0.251123898919342E+02
0.254419894162936E+02
0.257381051888278E+02
0.259977571329898E+02
0.262183162782093E+02
0.263975377316913E+02
0.265335893508543E+02
0.266250754984284E+02
0.266710553521203E+02
0.216944792510342E+02
0.221559254221193E+02
0.226155472605171E+02
0.230690234367901E+02
0.235120494863448E+02
0.239403802770083E+02
0.243498734505598E+02
0.247365333396594E+02
0.250965547857226E+02
0.254263662171114E+02
0.257226712952262E+02
0.259824884029233E+02
0.262031872386722E+02
0.263825217935230E+02
0.265186590275666E+02
0.266102026280594E+02
0.266562113212453E+02
</DataArray>
</PointData>
</Piece>
</RectilinearGrid>
</VTKFile>
