<?xml version="1.0"?>
<VTKFile type="RectilinearGrid" version="0.1" byte_order="LittleEndian">
<RectilinearGrid WholeExtent="0   63    0   63    0    3">
<Piece Extent="47   63    0   15    0    3">
<Coordinates>
<DataArray Name="x" type="Float32" format="ascii">
0.470000000000000E+01
0.480000000000000E+01
0.490000000000000E+01
0.500000000000000E+01
0.510000000000000E+01
0.520000000000000E+01
0.530000000000000E+01
0.540000000000000E+01
0.550000000000000E+01
0.560000000000000E+01
0.570000000000000E+01
0.580000000000000E+01
0.590000000000000E+01
0.600000000000000E+01
0.610000000000000E+01
0.620000000000000E+01
0.630000000000000E+01
</DataArray>
<DataArray Name="y" type="Float32" format="ascii">
0.000000000000000E+00
0.100000000000000E+00
0.200000000000000E+00
0.300000000000000E+00
0.400000000000000E+00
0.500000000000000E+00
0.600000000000000E+00
0.700000000000000E+00
0.800000000000000E+00
0.900000000000000E+00
0.100000000000000E+01
0.110000000000000E+01
0.120000000000000E+01
0.130000000000000E+01
0.140000000000000E+01
0.150000000000000E+01
</DataArray>
<DataArray Name="z" type="Float32" format="ascii">
0.000000000000000E+00
0.100000000000000E+00
0.200000000000000E+00
0.300000000000000E+00
</DataArray>
</Coordinates>
<PointData Scalars="c">
<DataArray type="Float32" Name="c" format="ascii">
0.287327365896868E+02
0.290113173864069E+02
0.292886894130777E+02
0.295622458099929E+02
0.298293929801058E+02
0.300875767042010E+02
0.303343085906753E+02
0.305671925295152E+02
0.307839507944236E+02
0.309824494186266E+02
0.311607224598138E+02
0.313169947688409E+02
0.314497028858094E+02
0.315575137061771E+02
0.316393405884970E+02
0.316943566136972E+02
0.317220047526250E+02
0.286869840757093E+02
0.289661287801990E+02
0.292440596400729E+02
0.295181646281137E+02
0.297858451023121E+02
0.300445419656742E+02
0.302917621581146E+02
0.305251051497736E+02
0.307422890795196E+02
0.309411761640164E+02
0.311197969927074E+02
0.312763733232680E+02
0.314093390011023E+02
0.315173586455131E+02
0.315993437741379E+02
0.316544660755683E+02
0.316821675868840E+02
0.286112503491188E+02
0.288913292105652E+02
0.291701858162194E+02
0.294451995786902E+02
0.297137634989755E+02
0.299733104001988E+02
0.302213394892421E+02
0.304554429152080E+02
0.306733319681495E+02
0.308728625432063E+02
0.310520594853218E+02
0.312091394289770E+02
0.313425317564435E+02
0.314508973171537E+02
0.315331445797677E+02
0.315884429268673E+02
0.316162328490204E+02
0.285063095657499E+02
0.287876843433564E+02
0.290678251868784E+02
0.293440996341899E+02
0.296138890937715E+02
0.298746151809743E+02
0.301237663763569E+02
0.303589246744662E+02
0.305777918660583E+02
0.307782150785616E+02
0.309582111897165E+02
0.311159897286669E+02
0.312499738879102E+02
0.313588192886585E+02
0.314414301711805E+02
0.314969727200672E+02
0.315248852811917E+02
0.283732325836652E+02
0.286562532387270E+02
0.289380251112611E+02
0.292159006583617E+02
0.294872465667504E+02
0.297494702192021E+02
0.300000464756287E+02
0.302365444364815E+02
0.304566538309061E+02
0.306582106540333E+02
0.308392216680355E+02
0.309978873810268E+02
0.311326231270953E+02
0.312420778899663E+02
0.313251505418582E+02
0.313810032074939E+02
0.314090715100736E+02
0.282133742756451E+02
0.284983757518124E+02
0.287821105509450E+02
0.290619129814139E+02
0.293351320141753E+02
0.295991579057686E+02
0.298514491270208E+02
0.300895592642637E+02
0.303111635348306E+02
0.305140845407123E+02
0.306963168746468E+02
0.308560501924862E+02
0.309916903749946E+02
0.311018784215171E+02
0.311855067470796E+02
0.312417325929083E+02
0.312699883072243E+02
0.280283575971636E+02
0.283156567142184E+02
0.286016683643949E+02
0.288837058060218E+02
0.291590974634126E+02
0.294252137313734E+02
0.296794940749927E+02
0.299194740905371E+02
0.301428121684492E+02
0.303473153817552E+02
0.305309642137486E+02
0.306919357385332E+02
0.308286248774302E+02
0.309396633736316E+02
0.310239361566617E+02
0.310805948066786E+02
0.311090678755290E+02
0.278200546799900E+02
0.281099471664853E+02
0.283985286776560E+02
0.286830887143153E+02
0.289609325129895E+02
0.292294080551602E+02
0.294859333599736E+02
0.297280237251343E+02
0.299533185561243E+02
0.301596074064136E+02
0.303448548420825E+02
0.305072237441542E+02
0.306450966714877E+02
0.307570949265564E+02
0.308420949956892E+02
0.308992420738620E+02
0.309279604310268E+02
0.275905652654559E+02
0.278833229555243E+02
0.281747436451457E+02
0.284620905896812E+02
0.287426434115385E+02
0.290137253354423E+02
0.292727306940528E+02
0.295171523674421E+02
0.297446087956299E+02
0.299528701861495E+02
0.301398835295873E+02
0.303037960360905E+02
0.304429766155364E+02
0.305560350436422E+02
0.306418384856182E+02
0.306995250875258E+02
0.307285143924210E+02
0.273421928267189E+02
0.276380610461923E+02
0.279325639495268E+02
0.282229363021544E+02
0.285064299241792E+02
0.287803411708300E+02
0.290420386689460E+02
0.292889909717025E+02
0.295187937697700E+02
0.297291962801426E+02
0.299181264250697E+02
0.300837144137767E+02
0.302243143495151E+02
0.303385235041826E+02
0.304251989321617E+02
0.304834711336339E+02
0.305127545245580E+02
0.270774187553326E+02
0.273766139220024E+02
0.276744134153140E+02
0.279680215316854E+02
0.282546603602403E+02
0.285315975252743E+02
0.287961741693570E+02
0.290458328378968E+02
0.292781449022990E+02
0.294908371421790E+02
0.296818170985439E+02
0.298491968103130E+02
0.299913145565721E+02
0.301067542467829E+02
0.301943621306601E+02
0.302532605380896E+02
0.302828584064069E+02
0.267988750038077E+02
0.271015824661206E+02
0.274028621268132E+02
0.276998861193147E+02
0.279898451517776E+02
0.282699765258988E+02
0.285375923800291E+02
0.287901078159490E+02
0.290250685453396E+02
0.292401776756110E+02
0.294333212464690E+02
0.296025921292822E+02
0.297463119115113E+02
0.298630504084199E+02
0.299516424738704E+02
0.300112018207123E+02
0.300411316082422E+02
0.265093155826308E+02
0.268156877203318E+02
0.271205984472687E+02
0.274211863423103E+02
0.277146093781189E+02
0.279980732280387E+02
0.282688597801114E+02
0.285243555161015E+02
0.287620793904261E+02
0.289797098278379E+02
0.291751104507112E+02
0.293463541476909E+02
0.294917451058516E+02
0.296098384486078E+02
0.296994571512917E+02
0.297597059450687E+02
0.297899819668468E+02
0.262115873077999E+02
0.265217419169367E+02
0.268304003330714E+02
0.271346665060072E+02
0.274316646280711E+02
0.277185677380341E+02
0.279926265143330E+02
0.282511979139526E+02
0.284917732907082E+02
0.287120056109606E+02
0.289097353770869E+02
0.290830148701821E+02
0.292301303340427E+02
0.293496217427210E+02
0.294402998237041E+02
0.295012600475778E+02
0.295318933420279E+02
0.259086001840117E+02
0.262226191672720E+02
0.265351063252641E+02
0.268431302331355E+02
0.271437805791462E+02
0.274341970717413E+02
0.277115985176026E+02
0.279733117254892E+02
0.282167998684519E+02
0.284396899216410E+02
0.286397987855162E+02
0.288151577056682E+02
0.289640346112323E+02
0.290849540142548E+02
0.291767141422308E+02
0.292384010148870E+02
0.292693992232848E+02
0.256032977901635E+02
0.259212261716805E+02
0.262375865813363E+02
0.265494118118112E+02
0.268537566531918E+02
0.271477271064129E+02
0.274285097490214E+02
0.276934009065268E+02
0.279398352607720E+02
0.281654135117448E+02
0.283679287021440E+02
0.285453908156669E+02
0.286960492709546E+02
0.288184129536506E+02
0.289112674589862E+02
0.289736892562014E+02
0.290050565331176E+02
0.287327365896868E+02
0.290113173864069E+02
0.292886894130777E+02
0.295622458099929E+02
0.298293929801058E+02
0.300875767042010E+02
0.303343085906753E+02
0.305671925295152E+02
0.307839507944236E+02
0.309824494186266E+02
0.311607224598138E+02
0.313169947688409E+02
0.314497028858094E+02
0.315575137061771E+02
0.316393405884970E+02
0.316943566136972E+02
0.317220047526250E+02
0.286869840757093E+02
0.289661287801990E+02
0.292440596400729E+02
0.295181646281137E+02
0.297858451023121E+02
0.300445419656742E+02
0.302917621581146E+02
0.305251051497736E+02
0.307422890795196E+02
0.309411761640164E+02
0.311197969927074E+02
0.312763733232680E+02
0.314093390011023E+02
0.315173586455131E+02
0.315993437741379E+02
0.316544660755683E+02
0.316821675868840E+02
0.286112503491188E+02
0.288913292105652E+02
0.291701858162194E+02
0.294451995786902E+02
0.297137634989755E+02
0.299733104001988E+02
0.302213394892421E+02
0.304554429152080E+02
0.306733319681495E+02
0.308728625432063E+02
0.310520594853218E+02
0.312091394289770E+02
0.313425317564435E+02
0.314508973171537E+02
0.315331445797677E+02
0.315884429268673E+02
0.316162328490204E+02
0.285063095657499E+02
0.287876843433564E+02
0.290678251868784E+02
0.293440996341899E+02
0.296138890937715E+02
0.298746151809743E+02
0.301237663763569E+02
0.303589246744662E+02
0.305777918660583E+02
0.307782150785616E+02
0.309582111897165E+02
0.311159897286669E+02
0.312499738879102E+02
0.313588192886585E+02
0.314414301711805E+02
0.314969727200672E+02
0.315248852811917E+02
0.283732325836652E+02
0.286562532387270E+02
0.289380251112611E+02
0.292159006583617E+02
0.294872465667504E+02
0.297494702192021E+02
0.300000464756287E+02
0.302365444364815E+02
0.304566538309061E+02
0.306582106540333E+02
0.308392216680355E+02
0.309978873810268E+02
0.311326231270953E+02
0.312420778899663E+02
0.313251505418582E+02
0.313810032074939E+02
0.314090715100736E+02
0.282133742756451E+02
0.284983757518124E+02
0.287821105509450E+02
0.290619129814139E+02
0.293351320141753E+02
0.295991579057686E+02
0.298514491270208E+02
0.300895592642637E+02
0.303111635348306E+02
0.305140845407123E+02
0.306963168746468E+02
0.308560501924862E+02
0.309916903749946E+02
0.311018784215171E+02
0.311855067470796E+02
0.312417325929083E+02
0.312699883072243E+02
0.280283575971636E+02
0.283156567142184E+02
0.286016683643949E+02
0.288837058060218E+02
0.291590974634126E+02
0.294252137313734E+02
0.296794940749927E+02
0.299194740905371E+02
0.301428121684492E+02
0.303473153817552E+02
0.305309642137486E+02
0.306919357385332E+02
0.308286248774302E+02
0.309396633736316E+02
0.310239361566617E+02
0.310805948066786E+02
0.311090678755290E+02
0.278200546799900E+02
0.281099471664853E+02
0.283985286776560E+02
0.286830887143153E+02
0.289609325129895E+02
0.292294080551602E+02
0.294859333599736E+02
0.297280237251343E+02
0.299533185561243E+02
0.301596074064136E+02
0.303448548420825E+02
0.305072237441542E+02
0.306450966714877E+02
0.307570949265564E+02
0.308420949956892E+02
0.308992420738620E+02
0.309279604310268E+02
0.275905652654559E+02
0.278833229555243E+02
0.281747436451457E+02
0.284620905896812E+02
0.287426434115385E+02
0.290137253354423E+02
0.292727306940528E+02
0.295171523674421E+02
0.297446087956299E+02
0.299528701861495E+02
0.301398835295873E+02
0.303037960360905E+02
0.304429766155364E+02
0.305560350436422E+02
0.306418384856182E+02
0.306995250875258E+02
0.307285143924210E+02
0.273421928267189E+02
0.276380610461923E+02
0.279325639495268E+02
0.282229363021544E+02
0.285064299241792E+02
0.287803411708300E+02
0.290420386689460E+02
0.292889909717025E+02
0.295187937697700E+02
0.297291962801426E+02
0.299181264250697E+02
0.300837144137767E+02
0.302243143495151E+02
0.303385235041826E+02
0.304251989321617E+02
0.304834711336339E+02
0.305127545245580E+02
0.270774187553326E+02
0.273766139220024E+02
0.276744134153140E+02
0.279680215316854E+02
0.282546603602403E+02
0.285315975252743E+02
0.287961741693570E+02
0.290458328378968E+02
0.292781449022990E+02
0.294908371421790E+02
0.296818170985439E+02
0.298491968103130E+02
0.299913145565721E+02
0.301067542467829E+02
0.301943621306601E+02
0.302532605380896E+02
0.302828584064069E+02
0.267988750038077E+02
0.271015824661206E+02
0.274028621268132E+02
0.276998861193147E+02
0.279898451517776E+02
0.282699765258988E+02
0.285375923800291E+02
0.287901078159490E+02
0.290250685453396E+02
0.292401776756110E+02
0.294333212464690E+02
0.296025921292822E+02
0.297463119115113E+02
0.298630504084199E+02
0.299516424738704E+02
0.300112018207123E+02
0.300411316082422E+02
0.265093155826308E+02
0.268156877203318E+02
0.271205984472687E+02
0.274211863423103E+02
0.277146093781189E+02
0.279980732280387E+02
0.282688597801114E+02
0.285243555161015E+02
0.287620793904261E+02
0.289797098278379E+02
0.291751104507112E+02
0.293463541476909E+02
0.294917451058516E+02
0.296098384486078E+02
0.296994571512917E+02
0.297597059450687E+02
0.297899819668468E+02
0.262115873077999E+02
0.265217419169367E+02
0.268304003330714E+02
0.271346665060072E+02
0.274316646280711E+02
0.277185677380341E+02
0.279926265143330E+02
0.282511979139526E+02
0.284917732907082E+02
0.287120056109606E+02
0.289097353770869E+02
0.290830148701821E+02
0.292301303340427E+02
0.293496217427210E+02
0.294402998237041E+02
0.295012600475778E+02
0.295318933420279E+02
0.259086001840117E+02
0.262226191672720E+02
0.265351063252641E+02
0.268431302331355E+02
0.271437805791462E+02
0.274341970717413E+02
0.277115985176026E+02
0.279733117254892E+02
0.282167998684519E+02
0.284396899216410E+02
0.286397987855162E+02
0.288151577056682E+02
0.289640346112323E+02
0.290849540142548E+02
0.291767141422308E+02
0.292384010148870E+02
0.292693992232848E+02
0.256032977901635E+02
0.259212261716805E+02
0.262375865813363E+02
0.265494118118112E+02
0.268537566531918E+02
0.271477271064129E+02
0.274285097490214E+02
0.276934009065268E+02
0.279398352607720E+02
0.281654135117448E+02
0.283679287021440E+02
0.285453908156669E+02
0.286960492709546E+02
0.288184129536506E+02
0.289112674589862E+02
0.289736892562014E+02
0.290050565331176E+02
0.287327365896868E+02
0.290113173864069E+02
0.292886894130777E+02
0.295622458099929E+02
0.298293929801058E+02
0.300875767042010E+02
0.303343085906753E+02
0.305671925295152E+02
0.307839507944236E+02
0.309824494186266E+02
0.311607224598138E+02
0.313169947688409E+02
0.314497028858094E+02
0.315575137061771E+02
0.316393405884970E+02
0.316943566136972E+02
0.317220047526250E+02
0.286869840757093E+02
0.289661287801990E+02
0.292440596400729E+02
0.295181646281137E+02
0.297858451023121E+02
0.300445419656742E+02
0.302917621581146E+02
0.305251051497736E+02
0.307422890795196E+02
0.309411761640164E+02
0.311197969927074E+02
0.312763733232680E+02
0.314093390011023E+02
0.315173586455131E+02
0.315993437741379E+02
0.316544660755683E+02
0.316821675868840E+02
0.286112503491188E+02
0.288913292105652E+02
0.291701858162194E+02
0.294451995786902E+02
0.297137634989755E+02
0.299733104001988E+02
0.302213394892421E+02
0.304554429152080E+02
0.306733319681495E+02
0.308728625432063E+02
0.310520594853218E+02
0.312091394289770E+02
0.313425317564435E+02
0.314508973171537E+02
0.315331445797677E+02
0.315884429268673E+02
0.316162328490204E+02
0.285063095657499E+02
0.287876843433564E+02
0.290678251868784E+02
0.293440996341899E+02
0.296138890937715E+02
0.298746151809743E+02
0.301237663763569E+02
0.303589246744662E+02
0.305777918660583E+02
0.307782150785616E+02
0.309582111897165E+02
0.311159897286669E+02
0.312499738879102E+02
0.313588192886585E+02
0.314414301711805E+02
0.314969727200672E+02
0.315248852811917E+02
0.283732325836652E+02
0.286562532387270E+02
0.289380251112611E+02
0.292159006583617E+02
0.294872465667504E+02
0.297494702192021E+02
0.300000464756287E+02
0.302365444364815E+02
0.304566538309061E+02
0.306582106540333E+02
0.308392216680355E+02
0.309978873810268E+02
0.311326231270953E+02
0.312420778899663E+02
0.313251505418582E+02
0.313810032074939E+02
0.314090715100736E+02
0.282133742756451E+02
0.284983757518124E+02
0.287821105509450E+02
0.290619129814139E+02
0.293351320141753E+02
0.295991579057686E+02
0.298514491270208E+02
0.300895592642637E+02
0.303111635348306E+02
0.305140845407123E+02
0.306963168746468E+02
0.308560501924862E+02
0.309916903749946E+02
0.311018784215171E+02
0.311855067470796E+02
0.312417325929083E+02
0.312699883072243E+02
0.280283575971636E+02
0.283156567142184E+02
0.286016683643949E+02
0.288837058060218E+02
0.291590974634126E+02
0.294252137313734E+02
0.296794940749927E+02
0.299194740905371E+02
0.301428121684492E+02
0.303473153817552E+02
0.305309642137486E+02
0.306919357385332E+02
0.308286248774302E+02
0.309396633736316E+02
0.310239361566617E+02
0.310805948066786E+02
0.311090678755290E+02
0.278200546799900E+02
0.281099471664853E+02
0.283985286776560E+02
0.286830887143153E+02
0.289609325129895E+02
0.292294080551602E+02
0.294859333599736E+02
0.297280237251343E+02
0.299533185561243E+02
0.301596074064136E+02
0.303448548420825E+02
0.305072237441542E+02
0.306450966714877E+02
0.307570949265564E+02
0.308420949956892E+02
0.308992420738620E+02
0.309279604310268E+02
0.275905652654559E+02
0.278833229555243E+02
0.281747436451457E+02
0.284620905896812E+02
0.287426434115385E+02
0.290137253354423E+02
0.292727306940528E+02
0.295171523674421E+02
0.297446087956299E+02
0.299528701861495E+02
0.301398835295873E+02
0.303037960360905E+02
0.304429766155364E+02
0.305560350436422E+02
0.306418384856182E+02
0.306995250875258E+02
0.307285143924210E+02
0.273421928267189E+02
0.276380610461923E+02
0.279325639495268E+02
0.282229363021544E+02
0.285064299241792E+02
0.287803411708300E+02
0.290420386689460E+02
0.292889909717025E+02
0.295187937697700E+02
0.297291962801426E+02
0.299181264250697E+02
0.300837144137767E+02
0.302243143495151E+02
0.303385235041826E+02
0.304251989321617E+02
0.304834711336339E+02
0.305127545245580E+02
0.270774187553326E+02
0.273766139220024E+02
0.276744134153140E+02
0.279680215316854E+02
0.282546603602403E+02
0.285315975252743E+02
0.287961741693570E+02
0.290458328378968E+02
0.292781449022990E+02
0.294908371421790E+02
0.296818170985439E+02
0.298491968103130E+02
0.299913145565721E+02
0.301067542467829E+02
0.301943621306601E+02
0.302532605380896E+02
0.302828584064069E+02
0.267988750038077E+02
0.271015824661206E+02
0.274028621268132E+02
0.276998861193147E+02
0.279898451517776E+02
0.282699765258988E+02
0.285375923800291E+02
0.287901078159490E+02
0.290250685453396E+02
0.292401776756110E+02
0.294333212464690E+02
0.296025921292822E+02
0.297463119115113E+02
0.298630504084199E+02
0.299516424738704E+02
0.300112018207123E+02
0.300411316082422E+02
0.265093155826308E+02
0.268156877203318E+02
0.271205984472687E+02
0.274211863423103E+02
0.277146093781189E+02
0.279980732280387E+02
0.282688597801114E+02
0.285243555161015E+02
0.287620793904261E+02
0.289797098278379E+02
0.291751104507112E+02
0.293463541476909E+02
0.294917451058516E+02
0.296098384486078E+02
0.296994571512917E+02
0.297597059450687E+02
0.297899819668468E+02
0.262115873077999E+02
0.265217419169367E+02
0.268304003330714E+02
0.271346665060072E+02
0.274316646280711E+02
0.277185677380341E+02
0.279926265143330E+02
0.282511979139526E+02
0.284917732907082E+02
0.287120056109606E+02
0.289097353770869E+02
0.290830148701821E+02
0.292301303340427E+02
0.293496217427210E+02
0.294402998237041E+02
0.295012600475778E+02
0.295318933420279E+02
0.259086001840117E+02
0.262226191672720E+02
0.265351063252641E+02
0.268431302331355E+02
0.271437805791462E+02
0.274341970717413E+02
0.277115985176026E+02
0.279733117254892E+02
0.282167998684519E+02
0.284396899216410E+02
0.286397987855162E+02
0.288151577056682E+02
0.289640346112323E+02
0.290849540142548E+02
0.291767141422308E+02
0.292384010148870E+02
0.292693992232848E+02
0.256032977901635E+02
0.259212261716805E+02
0.262375865813363E+02
0.265494118118112E+02
0.268537566531918E+02
0.271477271064129E+02
0.274285097490214E+02
0.276934009065268E+02
0.279398352607720E+02
0.281654135117448E+02
0.283679287021440E+02
0.285453908156669E+02
0.286960492709546E+02
0.288184129536506E+02
0.289112674589862E+02
0.289736892562014E+02
0.290050565331176E+02
0.287327365896868E+02
0.290113173864069E+02
0.292886894130777E+02
0.295622458099929E+02
0.298293929801058E+02
0.300875767042010E+02
0.303343085906753E+02
0.305671925295152E+02
0.307839507944236E+02
0.309824494186266E+02
0.311607224598138E+02
0.313169947688409E+02
0.314497028858094E+02
0.315575137061771E+02
0.316393405884970E+02
0.316943566136972E+02
0.317220047526250E+02
0.286869840757093E+02
0.289661287801990E+02
0.292440596400729E+02
0.295181646281137E+02
0.297858451023121E+02
0.300445419656742E+02
0.302917621581146E+02
0.305251051497736E+02
0.307422890795196E+02
0.309411761640164E+02
0.311197969927074E+02
0.312763733232680E+02
0.314093390011023E+02
0.315173586455131E+02
0.315993437741379E+02
0.316544660755683E+02
0.316821675868840E+02
0.286112503491188E+02
0.288913292105652E+02
0.291701858162194E+02
0.294451995786902E+02
0.297137634989755E+02
0.299733104001988E+02
0.302213394892421E+02
0.304554429152080E+02
0.306733319681495E+02
0.308728625432063E+02
0.310520594853218E+02
0.312091394289770E+02
0.313425317564435E+02
0.314508973171537E+02
0.315331445797677E+02
0.315884429268673E+02
0.316162328490204E+02
0.285063095657499E+02
0.287876843433564E+02
0.290678251868784E+02
0.293440996341899E+02
0.296138890937715E+02
0.298746151809743E+02
0.301237663763569E+02
0.303589246744662E+02
0.305777918660583E+02
0.307782150785616E+02
0.309582111897165E+02
0.311159897286669E+02
0.312499738879102E+02
0.313588192886585E+02
0.314414301711805E+02
0.314969727200672E+02
0.315248852811917E+02
0.283732325836652E+02
0.286562532387270E+02
0.289380251112611E+02
0.292159006583617E+02
0.294872465667504E+02
0.297494702192021E+02
0.300000464756287E+02
0.302365444364815E+02
0.304566538309061E+02
0.306582106540333E+02
0.308392216680355E+02
0.309978873810268E+02
0.311326231270953E+02
0.312420778899663E+02
0.313251505418582E+02
0.313810032074939E+02
0.314090715100736E+02
0.282133742756451E+02
0.284983757518124E+02
0.287821105509450E+02
0.290619129814139E+02
0.293351320141753E+02
0.295991579057686E+02
0.298514491270208E+02
0.300895592642637E+02
0.303111635348306E+02
0.305140845407123E+02
0.306963168746468E+02
0.308560501924862E+02
0.309916903749946E+02
0.311018784215171E+02
0.311855067470796E+02
0.312417325929083E+02
0.312699883072243E+02
0.280283575971636E+02
0.283156567142184E+02
0.286016683643949E+02
0.288837058060218E+02
0.291590974634126E+02
0.294252137313734E+02
0.296794940749927E+02
0.299194740905371E+02
0.301428121684492E+02
0.303473153817552E+02
0.305309642137486E+02
0.306919357385332E+02
0.308286248774302E+02
0.309396633736316E+02
0.310239361566617E+02
0.310805948066786E+02
0.311090678755290E+02
0.278200546799900E+02
0.281099471664853E+02
0.283985286776560E+02
0.286830887143153E+02
0.289609325129895E+02
0.292294080551602E+02
0.294859333599736E+02
0.297280237251343E+02
0.299533185561243E+02
0.301596074064136E+02
0.303448548420825E+02
0.305072237441542E+02
0.306450966714877E+02
0.307570949265564E+02
0.308420949956892E+02
0.308992420738620E+02
0.309279604310268E+02
0.275905652654559E+02
0.278833229555243E+02
0.281747436451457E+02
0.284620905896812E+02
0.287426434115385E+02
0.290137253354423E+02
0.292727306940528E+02
0.295171523674421E+02
0.297446087956299E+02
0.299528701861495E+02
0.301398835295873E+02
0.303037960360905E+02
0.304429766155364E+02
0.305560350436422E+02
0.306418384856182E+02
0.306995250875258E+02
0.307285143924210E+02
0.273421928267189E+02
0.276380610461923E+02
0.279325639495268E+02
0.282229363021544E+02
0.285064299241792E+02
0.287803411708300E+02
0.290420386689460E+02
0.292889909717025E+02
0.295187937697700E+02
0.297291962801426E+02
0.299181264250697E+02
0.300837144137767E+02
0.302243143495151E+02
0.303385235041826E+02
0.304251989321617E+02
0.304834711336339E+02
0.305127545245580E+02
0.270774187553326E+02
0.273766139220024E+02
0.276744134153140E+02
0.279680215316854E+02
0.282546603602403E+02
0.285315975252743E+02
0.287961741693570E+02
0.290458328378968E+02
0.292781449022990E+02
0.294908371421790E+02
0.296818170985439E+02
0.298491968103130E+02
0.299913145565721E+02
0.301067542467829E+02
0.301943621306601E+02
0.302532605380896E+02
0.302828584064069E+02
0.267988750038077E+02
0.271015824661206E+02
0.274028621268132E+02
0.276998861193147E+02
0.279898451517776E+02
0.282699765258988E+02
0.285375923800291E+02
0.287901078159490E+02
0.290250685453396E+02
0.292401776756110E+02
0.294333212464690E+02
0.296025921292822E+02
0.297463119115113E+02
0.298630504084199E+02
0.299516424738704E+02
0.300112018207123E+02
0.300411316082422E+02
0.265093155826308E+02
0.268156877203318E+02
0.271205984472687E+02
0.274211863423103E+02
0.277146093781189E+02
0.279980732280387E+02
0.282688597801114E+02
0.285243555161015E+02
0.287620793904261E+02
0.289797098278379E+02
0.291751104507112E+02
0.293463541476909E+02
0.294917451058516E+02
0.296098384486078E+02
0.296994571512917E+02
0.297597059450687E+02
0.297899819668468E+02
0.262115873077999E+02
0.265217419169367E+02
0.268304003330714E+02
0.271346665060072E+02
0.274316646280711E+02
0.277185677380341E+02
0.279926265143330E+02
0.282511979139526E+02
0.284917732907082E+02
0.287120056109606E+02
0.289097353770869E+02
0.290830148701821E+02
0.292301303340427E+02
0.293496217427210E+02
0.294402998237041E+02
0.295012600475778E+02
0.295318933420279E+02
0.259086001840117E+02
0.262226191672720E+02
0.265351063252641E+02
0.268431302331355E+02
0.271437805791462E+02
0.274341970717413E+02
0.277115985176026E+02
0.279733117254892E+02
0.282167998684519E+02
0.284396899216410E+02
0.286397987855162E+02
0.288151577056682E+02
0.289640346112323E+02
0.290849540142548E+02
0.291767141422308E+02
0.292384010148870E+02
0.292693992232848E+02
0.256032977901635E+02
0.259212261716805E+02
0.262375865813363E+02
0.265494118118112E+02
0.268537566531918E+02
0.271477271064129E+02
0.274285097490214E+02
0.276934009065268E+02
0.279398352607720E+02
0.281654135117448E+02
0.283679287021440E+02
0.285453908156669E+02
0.286960492709546E+02
0.288184129536506E+02
0.289112674589862E+02
0.289736892562014E+02
0.290050565331176E+02
</DataArray>
</PointData>
</Piece>
</RectilinearGrid>
</VTKFile>
