<?xml version="1.0"?>
<VTKFile type="RectilinearGrid" version="0.1" byte_order="LittleEndian">
<RectilinearGrid WholeExtent="0   63    0   63    0    3">
<Piece Extent="15   31   31   47    0    3">
<Coordinates>
<DataArray Name="x" type="Float32" format="ascii">
0.150000000000000E+01
0.160000000000000E+01
0.170000000000000E+01
0.180000000000000E+01
0.190000000000000E+01
0.200000000000000E+01
0.210000000000000E+01
0.220000000000000E+01
0.230000000000000E+01
0.240000000000000E+01
0.250000000000000E+01
0.260000000000000E+01
0.270000000000000E+01
0.280000000000000E+01
0.290000000000000E+01
0.300000000000000E+01
0.310000000000000E+01
</DataArray>
<DataArray Name="y" type="Float32" format="ascii">
0.310000000000000E+01
0.320000000000000E+01
0.330000000000000E+01
0.340000000000000E+01
0.350000000000000E+01
0.360000000000000E+01
0.370000000000000E+01
0.380000000000000E+01
0.390000000000000E+01
0.400000000000000E+01
0.410000000000000E+01
0.420000000000000E+01
0.430000000000000E+01
0.440000000000000E+01
0.450000000000000E+01
0.460000000000000E+01
0.470000000000000E+01
</DataArray>
<DataArray Name="z" type="Float32" format="ascii">
0.000000000000000E+00
0.100000000000000E+00
0.200000000000000E+00
0.300000000000000E+00
</DataArray>
</Coordinates>
<PointData Scalars="c">
<DataArray type="Float32" Name="c" format="ascii">
0.214986476243963E+02
0.210641469277091E+02
0.206340991372310E+02
0.202127306767314E+02
0.198041514771885E+02
0.194123184343695E+02
0.190410014574849E+02
0.186937522313004E+02
0.183738757682464E+02
0.180844047906368E+02
0.178280769554174E+02
0.176073149138000E+02
0.174242091843097E+02
0.172805038087430E+02
0.171775847549114E+02
0.171164710266906E+02
0.170978084399506E+02
0.215168225148232E+02
0.210826273791643E+02
0.206528842361247E+02
0.202318164366679E+02
0.198235308381117E+02
0.194319812950218E+02
0.190609347423846E+02
0.187139399929427E+02
0.183942993246572E+02
0.181050428977761E+02
0.178489060132525E+02
0.176283092041737E+02
0.174453411380348E+02
0.173017442986885E+02
0.171989034112312E+02
0.171378365698085E+02
0.171191890264763E+02
0.215711935896709E+02
0.211379118134322E+02
0.207090792913718E+02
0.202889101897899E+02
0.198815021790748E+02
0.194908000241485E+02
0.191205617707865E+02
0.187743276481941E+02
0.184553917620921E+02
0.181667766158947E+02
0.179112104697111E+02
0.176911075267506E+02
0.175085509228972E+02
0.173652784862941E+02
0.172626712283685E+02
0.172017445246713E+02
0.171831419423582E+02
0.216613007962426E+02
0.212295302548168E+02
0.208022044114969E+02
0.203835222368258E+02
0.199775662026336E+02
0.195882660371200E+02
0.192193650817223E+02
0.188743893676775E+02
0.185566194836953E+02
0.182690652692052E+02
0.180144433395782E+02
0.177951574294741E+02
0.176132815266623E+02
0.174705457598762E+02
0.173683249991036E+02
0.173076301240439E+02
0.172891019153858E+02
0.217863798498953E+02
0.213567020391353E+02
0.209314625655766E+02
0.205148393591998E+02
0.201108938493502E+02
0.197235349476404E+02
0.193564856407509E+02
0.190132523076187E+02
0.186970968285205E+02
0.184110115162017E+02
0.181576968708596E+02
0.179395421403965E+02
0.177586086535802E+02
0.176166158851385E+02
0.175149302070236E+02
0.174545562779172E+02
0.174361310226471E+02
0.219453659892335E+02
0.215183398029745E+02
0.210957438076642E+02
0.206817292772973E+02
0.202803309860716E+02
0.198954314796748E+02
0.195307279666246E+02
0.191897019398381E+02
0.188755915910000E+02
0.185913670424422E+02
0.183397083925487E+02
0.181229865501362E+02
0.179432468194986E+02
0.178021951894379E+02
0.177011872752532E+02
0.176412198611564E+02
0.176229249910162E+02
0.221368993327961E+02
0.217130551599898E+02
0.212936312741625E+02
0.208827469670549E+02
0.204844050364682E+02
0.201024564032050E+02
0.197405673600697E+02
0.194021895579479E+02
0.190905327856386E+02
0.188085405616619E+02
0.185588685271421E+02
0.183438656080957E+02
0.181655579017236E+02
0.180256352332201E+02
0.179254403257978E+02
0.178659605259071E+02
0.178478220270578E+02
0.223593319332250E+02
0.219391661525612E+02
0.215234090347030E+02
0.211161429076750E+02
0.207213336189597E+02
0.203427955514490E+02
0.199841592850859E+02
0.196488420032834E+02
0.193400206940249E+02
0.190606081564064E+02
0.188132317937880E+02
0.186002151537073E+02
0.184235621610170E+02
0.182849439829462E+02
0.181856884615893E+02
0.181267720494980E+02
0.181088141866350E+02
0.226107366471284E+02
0.221947065876961E+02
0.217830718960019E+02
0.213798733505175E+02
0.209890352727696E+02
0.206143309911836E+02
0.202593509656223E+02
0.199274736650783E+02
0.196218392408603E+02
0.193453259977104E+02
0.191005296351651E+02
0.188897452101960E+02
0.187149517585200E+02
0.185777995045669E+02
0.184795995875874E+02
0.184213162325556E+02
0.184035612983826E+02
0.228889179566999E+02
0.224774373826404E+02
0.220703372734431E+02
0.216716127132112E+02
0.212851423655619E+02
0.209146544292766E+02
0.205636952707604E+02
0.202356008185233E+02
0.199334707537678E+02
0.196601454904393E+02
0.194181859073948E+02
0.192098557737912E+02
0.190371067951926E+02
0.189015662008957E+02
0.188045267912167E+02
0.187469393657466E+02
0.187294074588412E+02
0.231914248912371E+02
0.227848600568663E+02
0.223826592554628E+02
0.219887682124701E+02
0.216070162846893E+02
0.212410829462696E+02
0.208944669684490E+02
0.205704583704929E+02
0.202721131670644E+02
0.200022308956631E+02
0.197633348764557E+02
0.195576551349691E+02
0.193871139045734E+02
0.192533136191056E+02
0.191575273050405E+02
0.191006912860392E+02
0.190834001194645E+02
0.235155662015044E+02
0.231142325114542E+02
0.227172449897100E+02
0.223284968525494E+02
0.219517650170887E+02
0.215906771504197E+02
0.212486814299924E+02
0.209290190844863E+02
0.206346997310785E+02
0.203684794825014E+02
0.201328417653340E+02
0.199299807688114E+02
0.197617874299525E+02
0.196298378546880E+02
0.195353840745674E+02
0.194793470432876E+02
0.194623117856057E+02
0.238584279358719E+02
0.234625872328379E+02
0.230710735158684E+02
0.226877248821609E+02
0.223162632187177E+02
0.219602618414535E+02
0.216231158633177E+02
0.213080153521378E+02
0.210179212843918E+02
0.207555442576626E+02
0.205233258919255E+02
0.203234228273427E+02
0.201576932128272E+02
0.200276855739879E+02
0.199346299498556E+02
0.198794311937191E+02
0.198626643433633E+02
0.242168935528674E+02
0.238267520439438E+02
0.234409171564603E+02
0.230631698194652E+02
0.226971748615955E+02
0.223464492608122E+02
0.220143331409315E+02
0.217039635668813E+02
0.214182511349336E+02
0.211598593097506E+02
0.209311864268204E+02
0.207343502560638E+02
0.205711750090541E+02
0.204431806671342E+02
0.203515745094037E+02
0.202972447267943E+02
0.202807560200784E+02
0.245876666789784E+02
0.242033735006568E+02
0.238233655525649E+02
0.234513651211000E+02
0.230909785235698E+02
0.227456649829411E+02
0.224187082669333E+02
0.221131911344634E+02
0.218319725755867E+02
0.215776677857094E+02
0.213526307809161E+02
0.211589395381553E+02
0.209983835307608E+02
0.208724535251285E+02
0.207823335069790E+02
0.207288946142044E+02
0.207126909666206E+02
0.249672965823593E+02
0.245889429943606E+02
0.242148523952140E+02
0.238486875360471E+02
0.234939953517900E+02
0.231541764690253E+02
0.228324574952722E+02
0.225318661237438E+02
0.222552090295734E+02
0.220050524871902E+02
0.217837056039344E+02
0.215932060415934E+02
0.214353080843609E+02
0.213114729075653E+02
0.212228609050490E+02
0.211703259429757E+02
0.211544114228625E+02
0.253522063822094E+02
0.249798255716262E+02
0.246116848547908E+02
0.242513871379505E+02
0.239024196849161E+02
0.235681242598421E+02
0.232516700678768E+02
0.229560295187946E+02
0.226839567795223E+02
0.224379690342276E+02
0.222203303354022E+02
0.220330379056644E+02
0.218778107369208E+02
0.217560803298672E+02
0.216689834212671E+02
0.216173565576574E+02
0.216017323908328E+02
0.214986476243963E+02
0.210641469277091E+02
0.206340991372310E+02
0.202127306767314E+02
0.198041514771885E+02
0.194123184343695E+02
0.190410014574849E+02
0.186937522313004E+02
0.183738757682464E+02
0.180844047906368E+02
0.178280769554174E+02
0.176073149138000E+02
0.174242091843097E+02
0.172805038087430E+02
0.171775847549114E+02
0.171164710266906E+02
0.170978084399506E+02
0.215168225148232E+02
0.210826273791643E+02
0.206528842361247E+02
0.202318164366679E+02
0.198235308381117E+02
0.194319812950218E+02
0.190609347423846E+02
0.187139399929427E+02
0.183942993246572E+02
0.181050428977761E+02
0.178489060132525E+02
0.176283092041737E+02
0.174453411380348E+02
0.173017442986885E+02
0.171989034112312E+02
0.171378365698085E+02
0.171191890264763E+02
0.215711935896709E+02
0.211379118134322E+02
0.207090792913718E+02
0.202889101897899E+02
0.198815021790748E+02
0.194908000241485E+02
0.191205617707865E+02
0.187743276481941E+02
0.184553917620921E+02
0.181667766158947E+02
0.179112104697111E+02
0.176911075267506E+02
0.175085509228972E+02
0.173652784862941E+02
0.172626712283685E+02
0.172017445246713E+02
0.171831419423582E+02
0.216613007962426E+02
0.212295302548168E+02
0.208022044114969E+02
0.203835222368258E+02
0.199775662026336E+02
0.195882660371200E+02
0.192193650817223E+02
0.188743893676775E+02
0.185566194836953E+02
0.182690652692052E+02
0.180144433395782E+02
0.177951574294741E+02
0.176132815266623E+02
0.174705457598762E+02
0.173683249991036E+02
0.173076301240439E+02
0.172891019153858E+02
0.217863798498953E+02
0.213567020391353E+02
0.209314625655766E+02
0.205148393591998E+02
0.201108938493502E+02
0.197235349476404E+02
0.193564856407509E+02
0.190132523076187E+02
0.186970968285205E+02
0.184110115162017E+02
0.181576968708596E+02
0.179395421403965E+02
0.177586086535802E+02
0.176166158851385E+02
0.175149302070236E+02
0.174545562779172E+02
0.174361310226471E+02
0.219453659892335E+02
0.215183398029745E+02
0.210957438076642E+02
0.206817292772973E+02
0.202803309860716E+02
0.198954314796748E+02
0.195307279666246E+02
0.191897019398381E+02
0.188755915910000E+02
0.185913670424422E+02
0.183397083925487E+02
0.181229865501362E+02
0.179432468194986E+02
0.178021951894379E+02
0.177011872752532E+02
0.176412198611564E+02
0.176229249910162E+02
0.221368993327961E+02
0.217130551599898E+02
0.212936312741625E+02
0.208827469670549E+02
0.204844050364682E+02
0.201024564032050E+02
0.197405673600697E+02
0.194021895579479E+02
0.190905327856386E+02
0.188085405616619E+02
0.185588685271421E+02
0.183438656080957E+02
0.181655579017236E+02
0.180256352332201E+02
0.179254403257978E+02
0.178659605259071E+02
0.178478220270578E+02
0.223593319332250E+02
0.219391661525612E+02
0.215234090347030E+02
0.211161429076750E+02
0.207213336189597E+02
0.203427955514490E+02
0.199841592850859E+02
0.196488420032834E+02
0.193400206940249E+02
0.190606081564064E+02
0.188132317937880E+02
0.186002151537073E+02
0.184235621610170E+02
0.182849439829462E+02
0.181856884615893E+02
0.181267720494980E+02
0.181088141866350E+02
0.226107366471284E+02
0.221947065876961E+02
0.217830718960019E+02
0.213798733505175E+02
0.209890352727696E+02
0.206143309911836E+02
0.202593509656223E+02
0.199274736650783E+02
0.196218392408603E+02
0.193453259977104E+02
0.191005296351651E+02
0.188897452101960E+02
0.187149517585200E+02
0.185777995045669E+02
0.184795995875874E+02
0.184213162325556E+02
0.184035612983826E+02
0.228889179566999E+02
0.224774373826404E+02
0.220703372734431E+02
0.216716127132112E+02
0.212851423655619E+02
0.209146544292766E+02
0.205636952707604E+02
0.202356008185233E+02
0.199334707537678E+02
0.196601454904393E+02
0.194181859073948E+02
0.192098557737912E+02
0.190371067951926E+02
0.189015662008957E+02
0.188045267912167E+02
0.187469393657466E+02
0.187294074588412E+02
0.231914248912371E+02
0.227848600568663E+02
0.223826592554628E+02
0.219887682124701E+02
0.216070162846893E+02
0.212410829462696E+02
0.208944669684490E+02
0.205704583704929E+02
0.202721131670644E+02
0.200022308956631E+02
0.197633348764557E+02
0.195576551349691E+02
0.193871139045734E+02
0.192533136191056E+02
0.191575273050405E+02
0.191006912860392E+02
0.190834001194645E+02
0.235155662015044E+02
0.231142325114542E+02
0.227172449897100E+02
0.223284968525494E+02
0.219517650170887E+02
0.215906771504197E+02
0.212486814299924E+02
0.209290190844863E+02
0.206346997310785E+02
0.203684794825014E+02
0.201328417653340E+02
0.199299807688114E+02
0.197617874299525E+02
0.196298378546880E+02
0.195353840745674E+02
0.194793470432876E+02
0.194623117856057E+02
0.238584279358719E+02
0.234625872328379E+02
0.230710735158684E+02
0.226877248821609E+02
0.223162632187177E+02
0.219602618414535E+02
0.216231158633177E+02
0.213080153521378E+02
0.210179212843918E+02
0.207555442576626E+02
0.205233258919255E+02
0.203234228273427E+02
0.201576932128272E+02
0.200276855739879E+02
0.199346299498556E+02
0.198794311937191E+02
0.198626643433633E+02
0.242168935528674E+02
0.238267520439438E+02
0.234409171564603E+02
0.230631698194652E+02
0.226971748615955E+02
0.223464492608122E+02
0.220143331409315E+02
0.217039635668813E+02
0.214182511349336E+02
0.211598593097506E+02
0.209311864268204E+02
0.207343502560638E+02
0.205711750090541E+02
0.204431806671342E+02
0.203515745094037E+02
0.202972447267943E+02
0.202807560200784E+02
0.245876666789784E+02
0.242033735006568E+02
0.238233655525649E+02
0.234513651211000E+02
0.230909785235698E+02
0.227456649829411E+02
0.224187082669333E+02
0.221131911344634E+02
0.218319725755867E+02
0.215776677857094E+02
0.213526307809161E+02
0.211589395381553E+02
0.209983835307608E+02
0.208724535251285E+02
0.207823335069790E+02
0.207288946142044E+02
0.207126909666206E+02
0.249672965823593E+02
0.245889429943606E+02
0.242148523952140E+02
0.238486875360471E+02
0.234939953517900E+02
0.231541764690253E+02
0.228324574952722E+02
0.225318661237438E+02
0.222552090295734E+02
0.220050524871902E+02
0.217837056039344E+02
0.215932060415934E+02
0.214353080843609E+02
0.213114729075653E+02
0.212228609050490E+02
0.211703259429757E+02
0.211544114228625E+02
0.253522063822094E+02
0.249798255716262E+02
0.246116848547908E+02
0.242513871379505E+02
0.239024196849161E+02
0.235681242598421E+02
0.232516700678768E+02
0.229560295187946E+02
0.226839567795223E+02
0.224379690342276E+02
0.222203303354022E+02
0.220330379056644E+02
0.218778107369208E+02
0.217560803298672E+02
0.216689834212671E+02
0.216173565576574E+02
0.216017323908328E+02
0.214986476243963E+02
0.210641469277091E+02
0.206340991372310E+02
0.202127306767314E+02
0.198041514771885E+02
0.194123184343695E+02
0.190410014574849E+02
0.186937522313004E+02
0.183738757682464E+02
0.180844047906368E+02
0.178280769554174E+02
0.176073149138000E+02
0.174242091843097E+02
0.172805038087430E+02
0.171775847549114E+02
0.171164710266906E+02
0.170978084399506E+02
0.215168225148232E+02
0.210826273791643E+02
0.206528842361247E+02
0.202318164366679E+02
0.198235308381117E+02
0.194319812950218E+02
0.190609347423846E+02
0.187139399929427E+02
0.183942993246572E+02
0.181050428977761E+02
0.178489060132525E+02
0.176283092041737E+02
0.174453411380348E+02
0.173017442986885E+02
0.171989034112312E+02
0.171378365698085E+02
0.171191890264763E+02
0.215711935896709E+02
0.211379118134322E+02
0.207090792913718E+02
0.202889101897899E+02
0.198815021790748E+02
0.194908000241485E+02
0.191205617707865E+02
0.187743276481941E+02
0.184553917620921E+02
0.181667766158947E+02
0.179112104697111E+02
0.176911075267506E+02
0.175085509228972E+02
0.173652784862941E+02
0.172626712283685E+02
0.172017445246713E+02
0.171831419423582E+02
0.216613007962426E+02
0.212295302548168E+02
0.208022044114969E+02
0.203835222368258E+02
0.199775662026336E+02
0.195882660371200E+02
0.192193650817223E+02
0.188743893676775E+02
0.185566194836953E+02
0.182690652692052E+02
0.180144433395782E+02
0.177951574294741E+02
0.176132815266623E+02
0.174705457598762E+02
0.173683249991036E+02
0.173076301240439E+02
0.172891019153858E+02
0.217863798498953E+02
0.213567020391353E+02
0.209314625655766E+02
0.205148393591998E+02
0.201108938493502E+02
0.197235349476404E+02
0.193564856407509E+02
0.190132523076187E+02
0.186970968285205E+02
0.184110115162017E+02
0.181576968708596E+02
0.179395421403965E+02
0.177586086535802E+02
0.176166158851385E+02
0.175149302070236E+02
0.174545562779172E+02
0.174361310226471E+02
0.219453659892335E+02
0.215183398029745E+02
0.210957438076642E+02
0.206817292772973E+02
0.202803309860716E+02
0.198954314796748E+02
0.195307279666246E+02
0.191897019398381E+02
0.188755915910000E+02
0.185913670424422E+02
0.183397083925487E+02
0.181229865501362E+02
0.179432468194986E+02
0.178021951894379E+02
0.177011872752532E+02
0.176412198611564E+02
0.176229249910162E+02
0.221368993327961E+02
0.217130551599898E+02
0.212936312741625E+02
0.208827469670549E+02
0.204844050364682E+02
0.201024564032050E+02
0.197405673600697E+02
0.194021895579479E+02
0.190905327856386E+02
0.188085405616619E+02
0.185588685271421E+02
0.183438656080957E+02
0.181655579017236E+02
0.180256352332201E+02
0.179254403257978E+02
0.178659605259071E+02
0.178478220270578E+02
0.223593319332250E+02
0.219391661525612E+02
0.215234090347030E+02
0.211161429076750E+02
0.207213336189597E+02
0.203427955514490E+02
0.199841592850859E+02
0.196488420032834E+02
0.193400206940249E+02
0.190606081564064E+02
0.188132317937880E+02
0.186002151537073E+02
0.184235621610170E+02
0.182849439829462E+02
0.181856884615893E+02
0.181267720494980E+02
0.181088141866350E+02
0.226107366471284E+02
0.221947065876961E+02
0.217830718960019E+02
0.213798733505175E+02
0.209890352727696E+02
0.206143309911836E+02
0.202593509656223E+02
0.199274736650783E+02
0.196218392408603E+02
0.193453259977104E+02
0.191005296351651E+02
0.188897452101960E+02
0.187149517585200E+02
0.185777995045669E+02
0.184795995875874E+02
0.184213162325556E+02
0.184035612983826E+02
0.228889179566999E+02
0.224774373826404E+02
0.220703372734431E+02
0.216716127132112E+02
0.212851423655619E+02
0.209146544292766E+02
0.205636952707604E+02
0.202356008185233E+02
0.199334707537678E+02
0.196601454904393E+02
0.194181859073948E+02
0.192098557737912E+02
0.190371067951926E+02
0.189015662008957E+02
0.188045267912167E+02
0.187469393657466E+02
0.187294074588412E+02
0.231914248912371E+02
0.227848600568663E+02
0.223826592554628E+02
0.219887682124701E+02
0.216070162846893E+02
0.212410829462696E+02
0.208944669684490E+02
0.205704583704929E+02
0.202721131670644E+02
0.200022308956631E+02
0.197633348764557E+02
0.195576551349691E+02
0.193871139045734E+02
0.192533136191056E+02
0.191575273050405E+02
0.191006912860392E+02
0.190834001194645E+02
0.235155662015044E+02
0.231142325114542E+02
0.227172449897100E+02
0.223284968525494E+02
0.219517650170887E+02
0.215906771504197E+02
0.212486814299924E+02
0.209290190844863E+02
0.206346997310785E+02
0.203684794825014E+02
0.201328417653340E+02
0.199299807688114E+02
0.197617874299525E+02
0.196298378546880E+02
0.195353840745674E+02
0.194793470432876E+02
0.194623117856057E+02
0.238584279358719E+02
0.234625872328379E+02
0.230710735158684E+02
0.226877248821609E+02
0.223162632187177E+02
0.219602618414535E+02
0.216231158633177E+02
0.213080153521378E+02
0.210179212843918E+02
0.207555442576626E+02
0.205233258919255E+02
0.203234228273427E+02
0.201576932128272E+02
0.200276855739879E+02
0.199346299498556E+02
0.198794311937191E+02
0.198626643433633E+02
0.242168935528674E+02
0.238267520439438E+02
0.234409171564603E+02
0.230631698194652E+02
0.226971748615955E+02
0.223464492608122E+02
0.220143331409315E+02
0.217039635668813E+02
0.214182511349336E+02
0.211598593097506E+02
0.209311864268204E+02
0.207343502560638E+02
0.205711750090541E+02
0.204431806671342E+02
0.203515745094037E+02
0.202972447267943E+02
0.202807560200784E+02
0.245876666789784E+02
0.242033735006568E+02
0.238233655525649E+02
0.234513651211000E+02
0.230909785235698E+02
0.227456649829411E+02
0.224187082669333E+02
0.221131911344634E+02
0.218319725755867E+02
0.215776677857094E+02
0.213526307809161E+02
0.211589395381553E+02
0.209983835307608E+02
0.208724535251285E+02
0.207823335069790E+02
0.207288946142044E+02
0.207126909666206E+02
0.249672965823593E+02
0.245889429943606E+02
0.242148523952140E+02
0.238486875360471E+02
0.234939953517900E+02
0.231541764690253E+02
0.228324574952722E+02
0.225318661237438E+02
0.222552090295734E+02
0.220050524871902E+02
0.217837056039344E+02
0.215932060415934E+02
0.214353080843609E+02
0.213114729075653E+02
0.212228609050490E+02
0.211703259429757E+02
0.211544114228625E+02
0.253522063822094E+02
0.249798255716262E+02
0.246116848547908E+02
0.242513871379505E+02
0.239024196849161E+02
0.235681242598421E+02
0.232516700678768E+02
0.229560295187946E+02
0.226839567795223E+02
0.224379690342276E+02
0.222203303354022E+02
0.220330379056644E+02
0.218778107369208E+02
0.217560803298672E+02
0.216689834212671E+02
0.216173565576574E+02
0.216017323908328E+02
0.214986476243963E+02
0.210641469277091E+02
0.206340991372310E+02
0.202127306767314E+02
0.198041514771885E+02
0.194123184343695E+02
0.190410014574849E+02
0.186937522313004E+02
0.183738757682464E+02
0.180844047906368E+02
0.178280769554174E+02
0.176073149138000E+02
0.174242091843097E+02
0.172805038087430E+02
0.171775847549114E+02
0.171164710266906E+02
0.170978084399506E+02
0.215168225148232E+02
0.210826273791643E+02
0.206528842361247E+02
0.202318164366679E+02
0.198235308381117E+02
0.194319812950218E+02
0.190609347423846E+02
0.187139399929427E+02
0.183942993246572E+02
0.181050428977761E+02
0.178489060132525E+02
0.176283092041737E+02
0.174453411380348E+02
0.173017442986885E+02
0.171989034112312E+02
0.171378365698085E+02
0.171191890264763E+02
0.215711935896709E+02
0.211379118134322E+02
0.207090792913718E+02
0.202889101897899E+02
0.198815021790748E+02
0.194908000241485E+02
0.191205617707865E+02
0.187743276481941E+02
0.184553917620921E+02
0.181667766158947E+02
0.179112104697111E+02
0.176911075267506E+02
0.175085509228972E+02
0.173652784862941E+02
0.172626712283685E+02
0.172017445246713E+02
0.171831419423582E+02
0.216613007962426E+02
0.212295302548168E+02
0.208022044114969E+02
0.203835222368258E+02
0.199775662026336E+02
0.195882660371200E+02
0.192193650817223E+02
0.188743893676775E+02
0.185566194836953E+02
0.182690652692052E+02
0.180144433395782E+02
0.177951574294741E+02
0.176132815266623E+02
0.174705457598762E+02
0.173683249991036E+02
0.173076301240439E+02
0.172891019153858E+02
0.217863798498953E+02
0.213567020391353E+02
0.209314625655766E+02
0.205148393591998E+02
0.201108938493502E+02
0.197235349476404E+02
0.193564856407509E+02
0.190132523076187E+02
0.186970968285205E+02
0.184110115162017E+02
0.181576968708596E+02
0.179395421403965E+02
0.177586086535802E+02
0.176166158851385E+02
0.175149302070236E+02
0.174545562779172E+02
0.174361310226471E+02
0.219453659892335E+02
0.215183398029745E+02
0.210957438076642E+02
0.206817292772973E+02
0.202803309860716E+02
0.198954314796748E+02
0.195307279666246E+02
0.191897019398381E+02
0.188755915910000E+02
0.185913670424422E+02
0.183397083925487E+02
0.181229865501362E+02
0.179432468194986E+02
0.178021951894379E+02
0.177011872752532E+02
0.176412198611564E+02
0.176229249910162E+02
0.221368993327961E+02
0.217130551599898E+02
0.212936312741625E+02
0.208827469670549E+02
0.204844050364682E+02
0.201024564032050E+02
0.197405673600697E+02
0.194021895579479E+02
0.190905327856386E+02
0.188085405616619E+02
0.185588685271421E+02
0.183438656080957E+02
0.181655579017236E+02
0.180256352332201E+02
0.179254403257978E+02
0.178659605259071E+02
0.178478220270578E+02
0.223593319332250E+02
0.219391661525612E+02
0.215234090347030E+02
0.211161429076750E+02
0.207213336189597E+02
0.203427955514490E+02
0.199841592850859E+02
0.196488420032834E+02
0.193400206940249E+02
0.190606081564064E+02
0.188132317937880E+02
0.186002151537073E+02
0.184235621610170E+02
0.182849439829462E+02
0.181856884615893E+02
0.181267720494980E+02
0.181088141866350E+02
0.226107366471284E+02
0.221947065876961E+02
0.217830718960019E+02
0.213798733505175E+02
0.209890352727696E+02
0.206143309911836E+02
0.202593509656223E+02
0.199274736650783E+02
0.196218392408603E+02
0.193453259977104E+02
0.191005296351651E+02
0.188897452101960E+02
0.187149517585200E+02
0.185777995045669E+02
0.184795995875874E+02
0.184213162325556E+02
0.184035612983826E+02
0.228889179566999E+02
0.224774373826404E+02
0.220703372734431E+02
0.216716127132112E+02
0.212851423655619E+02
0.209146544292766E+02
0.205636952707604E+02
0.202356008185233E+02
0.199334707537678E+02
0.196601454904393E+02
0.194181859073948E+02
0.192098557737912E+02
0.190371067951926E+02
0.189015662008957E+02
0.188045267912167E+02
0.187469393657466E+02
0.187294074588412E+02
0.231914248912371E+02
0.227848600568663E+02
0.223826592554628E+02
0.219887682124701E+02
0.216070162846893E+02
0.212410829462696E+02
0.208944669684490E+02
0.205704583704929E+02
0.202721131670644E+02
0.200022308956631E+02
0.197633348764557E+02
0.195576551349691E+02
0.193871139045734E+02
0.192533136191056E+02
0.191575273050405E+02
0.191006912860392E+02
0.190834001194645E+02
0.235155662015044E+02
0.231142325114542E+02
0.227172449897100E+02
0.223284968525494E+02
0.219517650170887E+02
0.215906771504197E+02
0.212486814299924E+02
0.209290190844863E+02
0.206346997310785E+02
0.203684794825014E+02
0.201328417653340E+02
0.199299807688114E+02
0.197617874299525E+02
0.196298378546880E+02
0.195353840745674E+02
0.194793470432876E+02
0.194623117856057E+02
0.238584279358719E+02
0.234625872328379E+02
0.230710735158684E+02
0.226877248821609E+02
0.223162632187177E+02
0.219602618414535E+02
0.216231158633177E+02
0.213080153521378E+02
0.210179212843918E+02
0.207555442576626E+02
0.205233258919255E+02
0.203234228273427E+02
0.201576932128272E+02
0.200276855739879E+02
0.199346299498556E+02
0.198794311937191E+02
0.198626643433633E+02
0.242168935528674E+02
0.238267520439438E+02
0.234409171564603E+02
0.230631698194652E+02
0.226971748615955E+02
0.223464492608122E+02
0.220143331409315E+02
0.217039635668813E+02
0.214182511349336E+02
0.211598593097506E+02
0.209311864268204E+02
0.207343502560638E+02
0.205711750090541E+02
0.204431806671342E+02
0.203515745094037E+02
0.202972447267943E+02
0.202807560200784E+02
0.245876666789784E+02
0.242033735006568E+02
0.238233655525649E+02
0.234513651211000E+02
0.230909785235698E+02
0.227456649829411E+02
0.224187082669333E+02
0.221131911344634E+02
0.218319725755867E+02
0.215776677857094E+02
0.213526307809161E+02
0.211589395381553E+02
0.209983835307608E+02
0.208724535251285E+02
0.207823335069790E+02
0.207288946142044E+02
0.207126909666206E+02
0.249672965823593E+02
0.245889429943606E+02
0.242148523952140E+02
0.238486875360471E+02
0.234939953517900E+02
0.231541764690253E+02
0.228324574952722E+02
0.225318661237438E+02
0.222552090295734E+02
0.220050524871902E+02
0.217837056039344E+02
0.215932060415934E+02
0.214353080843609E+02
0.213114729075653E+02
0.212228609050490E+02
0.211703259429757E+02
0.211544114228625E+02
0.253522063822094E+02
0.249798255716262E+02
0.246116848547908E+02
0.242513871379505E+02
0.239024196849161E+02
0.235681242598421E+02
0.232516700678768E+02
0.229560295187946E+02
0.226839567795223E+02
0.224379690342276E+02
0.222203303354022E+02
0.220330379056644E+02
0.218778107369208E+02
0.217560803298672E+02
0.216689834212671E+02
0.216173565576574E+02
0.216017323908328E+02
</DataArray>
</PointData>
</Piece>
</RectilinearGrid>
</VTKFile>
