<?xml version="1.0"?>
<VTKFile type="RectilinearGrid" version="0.1" byte_order="LittleEndian">
<RectilinearGrid WholeExtent="0   63    0   63    0    3">
<Piece Extent="31   47    0   15    0    3">
<Coordinates>
<DataArray Name="x" type="Float32" format="ascii">
0.310000000000000E+01
0.320000000000000E+01
0.330000000000000E+01
0.340000000000000E+01
0.350000000000000E+01
0.360000000000000E+01
0.370000000000000E+01
0.380000000000000E+01
0.390000000000000E+01
0.400000000000000E+01
0.410000000000000E+01
0.420000000000000E+01
0.430000000000000E+01
0.440000000000000E+01
0.450000000000000E+01
0.460000000000000E+01
0.470000000000000E+01
</DataArray>
<DataArray Name="y" type="Float32" format="ascii">
0.000000000000000E+00
0.100000000000000E+00
0.200000000000000E+00
0.300000000000000E+00
0.400000000000000E+00
0.500000000000000E+00
0.600000000000000E+00
0.700000000000000E+00
0.800000000000000E+00
0.900000000000000E+00
0.100000000000000E+01
0.110000000000000E+01
0.120000000000000E+01
0.130000000000000E+01
0.140000000000000E+01
0.150000000000000E+01
</DataArray>
<DataArray Name="z" type="Float32" format="ascii">
0.000000000000000E+00
0.100000000000000E+00
0.200000000000000E+00
0.300000000000000E+00
</DataArray>
</Coordinates>
<PointData Scalars="c">
<DataArray type="Float32" Name="c" format="ascii">
0.276077285716594E+02
0.276255658074820E+02
0.276788920870929E+02
0.277675035021973E+02
0.278910528442985E+02
0.280490481571871E+02
0.282408496099828E+02
0.284656641361982E+02
0.287225371954766E+02
0.290103409997650E+02
0.293277586239375E+02
0.296732636094568E+02
0.300450949809757E+02
0.304412280339068E+02
0.308593418078088E+02
0.312967848120237E+02
0.317505412739877E+02
0.274778667893935E+02
0.274958055733005E+02
0.275494350270812E+02
0.276385476682901E+02
0.277627904182655E+02
0.279216633015990E+02
0.281145165122865E+02
0.283405452815111E+02
0.285987818914793E+02
0.288880841640016E+02
0.292071198308406E+02
0.295543463824088E+02
0.299279863045256E+02
0.303259980535872E+02
0.307460436803666E+02
0.311854546676079E+02
0.316411982540137E+02
0.272636570262395E+02
0.272817645657097E+02
0.273358978317452E+02
0.274258433584680E+02
0.275512382420173E+02
0.277115690883142E+02
0.279061694054261E+02
0.281342148576666E+02
0.283947157051521E+02
0.286865057354040E+02
0.290082270720571E+02
0.293583104369842E+02
0.297349507583413E+02
0.301360784619411E+02
0.305593273483549E+02
0.310020006187442E+02
0.314610373256368E+02
0.269683537534354E+02
0.269866965328827E+02
0.270415320736545E+02
0.271326384780055E+02
0.272596390004339E+02
0.274220013499927E+02
0.276190355484380E+02
0.278498897358205E+02
0.281135432176093E+02
0.284087960283117E+02
0.287342543652791E+02
0.290883114400580E+02
0.294691236152686E+02
0.298745821459624E+02
0.303022814167162E+02
0.307494852343420E+02
0.312130934574806E+02
0.265963489222556E+02
0.266149924383883E+02
0.266707257444187E+02
0.267633160088441E+02
0.268923685442717E+02
0.270573265773106E+02
0.272574697209543E+02
0.274919105072400E+02
0.277595882350528E+02
0.280592593662394E+02
0.283894837823043E+02
0.287486064108889E+02
0.291347340577258E+02
0.295457077387518E+02
0.299790713889768E+02
0.304320385038179E+02
0.309014590006636E+02
0.261530218881402E+02
0.261720304031928E+02
0.262288532505519E+02
0.263232440969533E+02
0.264547861092740E+02
0.266228923135218E+02
0.268268048410045E+02
0.270655923766145E+02
0.273381450144734E+02
0.276431657012927E+02
0.279791575274736E+02
0.283444063270984E+02
0.287369583819050E+02
0.291545934934669E+02
0.295947942817599E+02
0.300547132605297E+02
0.305311399851642E+02
0.256445652372310E+02
0.256640015463812E+02
0.257221012972353E+02
0.258186020104721E+02
0.259530603839947E+02
0.261248533725121E+02
0.263331783800784E+02
0.265770518277832E+02
0.268553052408359E+02
0.271665779705885E+02
0.275093057475165E+02
0.278817044675599E+02
0.282817489573827E+02
0.287071469456635E+02
0.291553090761828E+02
0.296233165065986E+02
0.301078883980416E+02
0.250777980859287E+02
0.250977232899522E+02
0.251572822096375E+02
0.252561934923865E+02
0.253939829143524E+02
0.255699853232695E+02
0.257833459645216E+02
0.260330203890074E+02
0.263177720135671E+02
0.266361663715807E+02
0.269865611729497E+02
0.273670915055171E+02
0.277756498643081E+02
0.282098611914668E+02
0.286670537359689E+02
0.291442272691724E+02
0.296380209723179E+02
0.244599785681101E+02
0.244804518372263E+02
0.245416463861327E+02
0.246432591770103E+02
0.247847804795732E+02
0.249654968317669E+02
0.251844937021102E+02
0.254406569766392E+02
0.257326722540566E+02
0.260590208944286E+02
0.264179718498968E+02
0.268075685265501E+02
0.272256102942712E+02
0.276696287755702E+02
0.281368596912611E+02
0.286242117898498E+02
0.291282351893816E+02
0.237986263653723E+02
0.238197046759236E+02
0.238827047216316E+02
0.239872988872770E+02
0.241329372272644E+02
0.243188516110515E+02
0.245440599404364E+02
0.248073694729630E+02
0.251073781329545E+02
0.254424726476474E+02
0.258108224310478E+02
0.262103683681865E+02
0.266388060358815E+02
0.270935634310259E+02
0.275717739482600E+02
0.280702461233118E+02
0.285854324851807E+02
0.231013644138408E+02
0.231231022365264E+02
0.231880701229150E+02
0.232959129203265E+02
0.234460356551743E+02
0.236376090418794E+02
0.238695754892074E+02
0.241406545353614E+02
0.244493464750694E+02
0.247939328914187E+02
0.251724728929530E+02
0.255827940977304E+02
0.260224778078720E+02
0.264888383770500E+02
0.269788974717917E+02
0.274893547309325E+02
0.280165571827793E+02
0.223757865548379E+02
0.223982354721979E+02
0.224653248791917E+02
0.225766690795224E+02
0.227316231906600E+02
0.229292902057688E+02
0.231685290371365E+02
0.234479623542191E+02
0.237659828439207E+02
0.241207564631191E+02
0.245102213445396E+02
0.249320812712951E+02
0.253837930585468E+02
0.258625477672004E+02
0.263652464044132E+02
0.268884716019841E+02
0.274284576507480E+02
0.216293551507858E+02
0.216525633829131E+02
0.217219179143374E+02
0.218369994855438E+02
0.219971084088507E+02
0.222012733816548E+02
0.224482618262863E+02
0.227365904351574E+02
0.230645343948432E+02
0.234301336973576E+02
0.238311950421065E+02
0.242652881013512E+02
0.247297353695597E+02
0.252215954347979E+02
0.257376402756590E+02
0.262743280603460E+02
0.268277738469848E+02
0.208693298403661E+02
0.208933416616452E+02
0.209650931100253E+02
0.210841283743707E+02
0.212496881226874E+02
0.214607202707823E+02
0.217158928852472E+02
0.220136077481056E+02
0.223520128836777E+02
0.227290122744472E+02
0.231422710929605E+02
0.235892150635306E+02
0.240670230427492E+02
0.245726125608544E+02
0.251026188710479E+02
0.256533689678855E+02
0.262208529974006E+02
0.201027259192278E+02
0.201275809553105E+02
0.202018472115214E+02
0.203250294251824E+02
0.204963039304970E+02
0.207145315884841E+02
0.209782735218722E+02
0.212858080136629E+02
0.216351466773430E+02
0.220240479239747E+02
0.224500258576612E+02
0.229103530373654E+02
0.234020560493975E+02
0.239219035272528E+02
0.244663871045295E+02
0.250316967457414E+02
0.256136929040982E+02
0.193362985238028E+02
0.193620309268650E+02
0.194389135288059E+02
0.195664088738678E+02
0.197436245355368E+02
0.199693284102785E+02
0.202419675485389E+02
0.205596886958436E+02
0.209203584399996E+02
0.213215807681448E+02
0.217607099507331E+02
0.222348569981790E+02
0.227408884767741E+02
0.232754172062612E+02
0.238347852587772E+02
0.244150406871013E+02
0.250119104606952E+02
0.276077285716594E+02
0.276255658074820E+02
0.276788920870929E+02
0.277675035021973E+02
0.278910528442985E+02
0.280490481571871E+02
0.282408496099828E+02
0.284656641361982E+02
0.287225371954766E+02
0.290103409997650E+02
0.293277586239375E+02
0.296732636094568E+02
0.300450949809757E+02
0.304412280339068E+02
0.308593418078088E+02
0.312967848120237E+02
0.317505412739877E+02
0.274778667893935E+02
0.274958055733005E+02
0.275494350270812E+02
0.276385476682901E+02
0.277627904182655E+02
0.279216633015990E+02
0.281145165122865E+02
0.283405452815111E+02
0.285987818914793E+02
0.288880841640016E+02
0.292071198308406E+02
0.295543463824088E+02
0.299279863045256E+02
0.303259980535872E+02
0.307460436803666E+02
0.311854546676079E+02
0.316411982540137E+02
0.272636570262395E+02
0.272817645657097E+02
0.273358978317452E+02
0.274258433584680E+02
0.275512382420173E+02
0.277115690883142E+02
0.279061694054261E+02
0.281342148576666E+02
0.283947157051521E+02
0.286865057354040E+02
0.290082270720571E+02
0.293583104369842E+02
0.297349507583413E+02
0.301360784619411E+02
0.305593273483549E+02
0.310020006187442E+02
0.314610373256368E+02
0.269683537534354E+02
0.269866965328827E+02
0.270415320736545E+02
0.271326384780055E+02
0.272596390004339E+02
0.274220013499927E+02
0.276190355484380E+02
0.278498897358205E+02
0.281135432176093E+02
0.284087960283117E+02
0.287342543652791E+02
0.290883114400580E+02
0.294691236152686E+02
0.298745821459624E+02
0.303022814167162E+02
0.307494852343420E+02
0.312130934574806E+02
0.265963489222556E+02
0.266149924383883E+02
0.266707257444187E+02
0.267633160088441E+02
0.268923685442717E+02
0.270573265773106E+02
0.272574697209543E+02
0.274919105072400E+02
0.277595882350528E+02
0.280592593662394E+02
0.283894837823043E+02
0.287486064108889E+02
0.291347340577258E+02
0.295457077387518E+02
0.299790713889768E+02
0.304320385038179E+02
0.309014590006636E+02
0.261530218881402E+02
0.261720304031928E+02
0.262288532505519E+02
0.263232440969533E+02
0.264547861092740E+02
0.266228923135218E+02
0.268268048410045E+02
0.270655923766145E+02
0.273381450144734E+02
0.276431657012927E+02
0.279791575274736E+02
0.283444063270984E+02
0.287369583819050E+02
0.291545934934669E+02
0.295947942817599E+02
0.300547132605297E+02
0.305311399851642E+02
0.256445652372310E+02
0.256640015463812E+02
0.257221012972353E+02
0.258186020104721E+02
0.259530603839947E+02
0.261248533725121E+02
0.263331783800784E+02
0.265770518277832E+02
0.268553052408359E+02
0.271665779705885E+02
0.275093057475165E+02
0.278817044675599E+02
0.282817489573827E+02
0.287071469456635E+02
0.291553090761828E+02
0.296233165065986E+02
0.301078883980416E+02
0.250777980859287E+02
0.250977232899522E+02
0.251572822096375E+02
0.252561934923865E+02
0.253939829143524E+02
0.255699853232695E+02
0.257833459645216E+02
0.260330203890074E+02
0.263177720135671E+02
0.266361663715807E+02
0.269865611729497E+02
0.273670915055171E+02
0.277756498643081E+02
0.282098611914668E+02
0.286670537359689E+02
0.291442272691724E+02
0.296380209723179E+02
0.244599785681101E+02
0.244804518372263E+02
0.245416463861327E+02
0.246432591770103E+02
0.247847804795732E+02
0.249654968317669E+02
0.251844937021102E+02
0.254406569766392E+02
0.257326722540566E+02
0.260590208944286E+02
0.264179718498968E+02
0.268075685265501E+02
0.272256102942712E+02
0.276696287755702E+02
0.281368596912611E+02
0.286242117898498E+02
0.291282351893816E+02
0.237986263653723E+02
0.238197046759236E+02
0.238827047216316E+02
0.239872988872770E+02
0.241329372272644E+02
0.243188516110515E+02
0.245440599404364E+02
0.248073694729630E+02
0.251073781329545E+02
0.254424726476474E+02
0.258108224310478E+02
0.262103683681865E+02
0.266388060358815E+02
0.270935634310259E+02
0.275717739482600E+02
0.280702461233118E+02
0.285854324851807E+02
0.231013644138408E+02
0.231231022365264E+02
0.231880701229150E+02
0.232959129203265E+02
0.234460356551743E+02
0.236376090418794E+02
0.238695754892074E+02
0.241406545353614E+02
0.244493464750694E+02
0.247939328914187E+02
0.251724728929530E+02
0.255827940977304E+02
0.260224778078720E+02
0.264888383770500E+02
0.269788974717917E+02
0.274893547309325E+02
0.280165571827793E+02
0.223757865548379E+02
0.223982354721979E+02
0.224653248791917E+02
0.225766690795224E+02
0.227316231906600E+02
0.229292902057688E+02
0.231685290371365E+02
0.234479623542191E+02
0.237659828439207E+02
0.241207564631191E+02
0.245102213445396E+02
0.249320812712951E+02
0.253837930585468E+02
0.258625477672004E+02
0.263652464044132E+02
0.268884716019841E+02
0.274284576507480E+02
0.216293551507858E+02
0.216525633829131E+02
0.217219179143374E+02
0.218369994855438E+02
0.219971084088507E+02
0.222012733816548E+02
0.224482618262863E+02
0.227365904351574E+02
0.230645343948432E+02
0.234301336973576E+02
0.238311950421065E+02
0.242652881013512E+02
0.247297353695597E+02
0.252215954347979E+02
0.257376402756590E+02
0.262743280603460E+02
0.268277738469848E+02
0.208693298403661E+02
0.208933416616452E+02
0.209650931100253E+02
0.210841283743707E+02
0.212496881226874E+02
0.214607202707823E+02
0.217158928852472E+02
0.220136077481056E+02
0.223520128836777E+02
0.227290122744472E+02
0.231422710929605E+02
0.235892150635306E+02
0.240670230427492E+02
0.245726125608544E+02
0.251026188710479E+02
0.256533689678855E+02
0.262208529974006E+02
0.201027259192278E+02
0.201275809553105E+02
0.202018472115214E+02
0.203250294251824E+02
0.204963039304970E+02
0.207145315884841E+02
0.209782735218722E+02
0.212858080136629E+02
0.216351466773430E+02
0.220240479239747E+02
0.224500258576612E+02
0.229103530373654E+02
0.234020560493975E+02
0.239219035272528E+02
0.244663871045295E+02
0.250316967457414E+02
0.256136929040982E+02
0.193362985238028E+02
0.193620309268650E+02
0.194389135288059E+02
0.195664088738678E+02
0.197436245355368E+02
0.199693284102785E+02
0.202419675485389E+02
0.205596886958436E+02
0.209203584399996E+02
0.213215807681448E+02
0.217607099507331E+02
0.222348569981790E+02
0.227408884767741E+02
0.232754172062612E+02
0.238347852587772E+02
0.244150406871013E+02
0.250119104606952E+02
0.276077285716594E+02
0.276255658074820E+02
0.276788920870929E+02
0.277675035021973E+02
0.278910528442985E+02
0.280490481571871E+02
0.282408496099828E+02
0.284656641361982E+02
0.287225371954766E+02
0.290103409997650E+02
0.293277586239375E+02
0.296732636094568E+02
0.300450949809757E+02
0.304412280339068E+02
0.308593418078088E+02
0.312967848120237E+02
0.317505412739877E+02
0.274778667893935E+02
0.274958055733005E+02
0.275494350270812E+02
0.276385476682901E+02
0.277627904182655E+02
0.279216633015990E+02
0.281145165122865E+02
0.283405452815111E+02
0.285987818914793E+02
0.288880841640016E+02
0.292071198308406E+02
0.295543463824088E+02
0.299279863045256E+02
0.303259980535872E+02
0.307460436803666E+02
0.311854546676079E+02
0.316411982540137E+02
0.272636570262395E+02
0.272817645657097E+02
0.273358978317452E+02
0.274258433584680E+02
0.275512382420173E+02
0.277115690883142E+02
0.279061694054261E+02
0.281342148576666E+02
0.283947157051521E+02
0.286865057354040E+02
0.290082270720571E+02
0.293583104369842E+02
0.297349507583413E+02
0.301360784619411E+02
0.305593273483549E+02
0.310020006187442E+02
0.314610373256368E+02
0.269683537534354E+02
0.269866965328827E+02
0.270415320736545E+02
0.271326384780055E+02
0.272596390004339E+02
0.274220013499927E+02
0.276190355484380E+02
0.278498897358205E+02
0.281135432176093E+02
0.284087960283117E+02
0.287342543652791E+02
0.290883114400580E+02
0.294691236152686E+02
0.298745821459624E+02
0.303022814167162E+02
0.307494852343420E+02
0.312130934574806E+02
0.265963489222556E+02
0.266149924383883E+02
0.266707257444187E+02
0.267633160088441E+02
0.268923685442717E+02
0.270573265773106E+02
0.272574697209543E+02
0.274919105072400E+02
0.277595882350528E+02
0.280592593662394E+02
0.283894837823043E+02
0.287486064108889E+02
0.291347340577258E+02
0.295457077387518E+02
0.299790713889768E+02
0.304320385038179E+02
0.309014590006636E+02
0.261530218881402E+02
0.261720304031928E+02
0.262288532505519E+02
0.263232440969533E+02
0.264547861092740E+02
0.266228923135218E+02
0.268268048410045E+02
0.270655923766145E+02
0.273381450144734E+02
0.276431657012927E+02
0.279791575274736E+02
0.283444063270984E+02
0.287369583819050E+02
0.291545934934669E+02
0.295947942817599E+02
0.300547132605297E+02
0.305311399851642E+02
0.256445652372310E+02
0.256640015463812E+02
0.257221012972353E+02
0.258186020104721E+02
0.259530603839947E+02
0.261248533725121E+02
0.263331783800784E+02
0.265770518277832E+02
0.268553052408359E+02
0.271665779705885E+02
0.275093057475165E+02
0.278817044675599E+02
0.282817489573827E+02
0.287071469456635E+02
0.291553090761828E+02
0.296233165065986E+02
0.301078883980416E+02
0.250777980859287E+02
0.250977232899522E+02
0.251572822096375E+02
0.252561934923865E+02
0.253939829143524E+02
0.255699853232695E+02
0.257833459645216E+02
0.260330203890074E+02
0.263177720135671E+02
0.266361663715807E+02
0.269865611729497E+02
0.273670915055171E+02
0.277756498643081E+02
0.282098611914668E+02
0.286670537359689E+02
0.291442272691724E+02
0.296380209723179E+02
0.244599785681101E+02
0.244804518372263E+02
0.245416463861327E+02
0.246432591770103E+02
0.247847804795732E+02
0.249654968317669E+02
0.251844937021102E+02
0.254406569766392E+02
0.257326722540566E+02
0.260590208944286E+02
0.264179718498968E+02
0.268075685265501E+02
0.272256102942712E+02
0.276696287755702E+02
0.281368596912611E+02
0.286242117898498E+02
0.291282351893816E+02
0.237986263653723E+02
0.238197046759236E+02
0.238827047216316E+02
0.239872988872770E+02
0.241329372272644E+02
0.243188516110515E+02
0.245440599404364E+02
0.248073694729630E+02
0.251073781329545E+02
0.254424726476474E+02
0.258108224310478E+02
0.262103683681865E+02
0.266388060358815E+02
0.270935634310259E+02
0.275717739482600E+02
0.280702461233118E+02
0.285854324851807E+02
0.231013644138408E+02
0.231231022365264E+02
0.231880701229150E+02
0.232959129203265E+02
0.234460356551743E+02
0.236376090418794E+02
0.238695754892074E+02
0.241406545353614E+02
0.244493464750694E+02
0.247939328914187E+02
0.251724728929530E+02
0.255827940977304E+02
0.260224778078720E+02
0.264888383770500E+02
0.269788974717917E+02
0.274893547309325E+02
0.280165571827793E+02
0.223757865548379E+02
0.223982354721979E+02
0.224653248791917E+02
0.225766690795224E+02
0.227316231906600E+02
0.229292902057688E+02
0.231685290371365E+02
0.234479623542191E+02
0.237659828439207E+02
0.241207564631191E+02
0.245102213445396E+02
0.249320812712951E+02
0.253837930585468E+02
0.258625477672004E+02
0.263652464044132E+02
0.268884716019841E+02
0.274284576507480E+02
0.216293551507858E+02
0.216525633829131E+02
0.217219179143374E+02
0.218369994855438E+02
0.219971084088507E+02
0.222012733816548E+02
0.224482618262863E+02
0.227365904351574E+02
0.230645343948432E+02
0.234301336973576E+02
0.238311950421065E+02
0.242652881013512E+02
0.247297353695597E+02
0.252215954347979E+02
0.257376402756590E+02
0.262743280603460E+02
0.268277738469848E+02
0.208693298403661E+02
0.208933416616452E+02
0.209650931100253E+02
0.210841283743707E+02
0.212496881226874E+02
0.214607202707823E+02
0.217158928852472E+02
0.220136077481056E+02
0.223520128836777E+02
0.227290122744472E+02
0.231422710929605E+02
0.235892150635306E+02
0.240670230427492E+02
0.245726125608544E+02
0.251026188710479E+02
0.256533689678855E+02
0.262208529974006E+02
0.201027259192278E+02
0.201275809553105E+02
0.202018472115214E+02
0.203250294251824E+02
0.204963039304970E+02
0.207145315884841E+02
0.209782735218722E+02
0.212858080136629E+02
0.216351466773430E+02
0.220240479239747E+02
0.224500258576612E+02
0.229103530373654E+02
0.234020560493975E+02
0.239219035272528E+02
0.244663871045295E+02
0.250316967457414E+02
0.256136929040982E+02
0.193362985238028E+02
0.193620309268650E+02
0.194389135288059E+02
0.195664088738678E+02
0.197436245355368E+02
0.199693284102785E+02
0.202419675485389E+02
0.205596886958436E+02
0.209203584399996E+02
0.213215807681448E+02
0.217607099507331E+02
0.222348569981790E+02
0.227408884767741E+02
0.232754172062612E+02
0.238347852587772E+02
0.244150406871013E+02
0.250119104606952E+02
0.276077285716594E+02
0.276255658074820E+02
0.276788920870929E+02
0.277675035021973E+02
0.278910528442985E+02
0.280490481571871E+02
0.282408496099828E+02
0.284656641361982E+02
0.287225371954766E+02
0.290103409997650E+02
0.293277586239375E+02
0.296732636094568E+02
0.300450949809757E+02
0.304412280339068E+02
0.308593418078088E+02
0.312967848120237E+02
0.317505412739877E+02
0.274778667893935E+02
0.274958055733005E+02
0.275494350270812E+02
0.276385476682901E+02
0.277627904182655E+02
0.279216633015990E+02
0.281145165122865E+02
0.283405452815111E+02
0.285987818914793E+02
0.288880841640016E+02
0.292071198308406E+02
0.295543463824088E+02
0.299279863045256E+02
0.303259980535872E+02
0.307460436803666E+02
0.311854546676079E+02
0.316411982540137E+02
0.272636570262395E+02
0.272817645657097E+02
0.273358978317452E+02
0.274258433584680E+02
0.275512382420173E+02
0.277115690883142E+02
0.279061694054261E+02
0.281342148576666E+02
0.283947157051521E+02
0.286865057354040E+02
0.290082270720571E+02
0.293583104369842E+02
0.297349507583413E+02
0.301360784619411E+02
0.305593273483549E+02
0.310020006187442E+02
0.314610373256368E+02
0.269683537534354E+02
0.269866965328827E+02
0.270415320736545E+02
0.271326384780055E+02
0.272596390004339E+02
0.274220013499927E+02
0.276190355484380E+02
0.278498897358205E+02
0.281135432176093E+02
0.284087960283117E+02
0.287342543652791E+02
0.290883114400580E+02
0.294691236152686E+02
0.298745821459624E+02
0.303022814167162E+02
0.307494852343420E+02
0.312130934574806E+02
0.265963489222556E+02
0.266149924383883E+02
0.266707257444187E+02
0.267633160088441E+02
0.268923685442717E+02
0.270573265773106E+02
0.272574697209543E+02
0.274919105072400E+02
0.277595882350528E+02
0.280592593662394E+02
0.283894837823043E+02
0.287486064108889E+02
0.291347340577258E+02
0.295457077387518E+02
0.299790713889768E+02
0.304320385038179E+02
0.309014590006636E+02
0.261530218881402E+02
0.261720304031928E+02
0.262288532505519E+02
0.263232440969533E+02
0.264547861092740E+02
0.266228923135218E+02
0.268268048410045E+02
0.270655923766145E+02
0.273381450144734E+02
0.276431657012927E+02
0.279791575274736E+02
0.283444063270984E+02
0.287369583819050E+02
0.291545934934669E+02
0.295947942817599E+02
0.300547132605297E+02
0.305311399851642E+02
0.256445652372310E+02
0.256640015463812E+02
0.257221012972353E+02
0.258186020104721E+02
0.259530603839947E+02
0.261248533725121E+02
0.263331783800784E+02
0.265770518277832E+02
0.268553052408359E+02
0.271665779705885E+02
0.275093057475165E+02
0.278817044675599E+02
0.282817489573827E+02
0.287071469456635E+02
0.291553090761828E+02
0.296233165065986E+02
0.301078883980416E+02
0.250777980859287E+02
0.250977232899522E+02
0.251572822096375E+02
0.252561934923865E+02
0.253939829143524E+02
0.255699853232695E+02
0.257833459645216E+02
0.260330203890074E+02
0.263177720135671E+02
0.266361663715807E+02
0.269865611729497E+02
0.273670915055171E+02
0.277756498643081E+02
0.282098611914668E+02
0.286670537359689E+02
0.291442272691724E+02
0.296380209723179E+02
0.244599785681101E+02
0.244804518372263E+02
0.245416463861327E+02
0.246432591770103E+02
0.247847804795732E+02
0.249654968317669E+02
0.251844937021102E+02
0.254406569766392E+02
0.257326722540566E+02
0.260590208944286E+02
0.264179718498968E+02
0.268075685265501E+02
0.272256102942712E+02
0.276696287755702E+02
0.281368596912611E+02
0.286242117898498E+02
0.291282351893816E+02
0.237986263653723E+02
0.238197046759236E+02
0.238827047216316E+02
0.239872988872770E+02
0.241329372272644E+02
0.243188516110515E+02
0.245440599404364E+02
0.248073694729630E+02
0.251073781329545E+02
0.254424726476474E+02
0.258108224310478E+02
0.262103683681865E+02
0.266388060358815E+02
0.270935634310259E+02
0.275717739482600E+02
0.280702461233118E+02
0.285854324851807E+02
0.231013644138408E+02
0.231231022365264E+02
0.231880701229150E+02
0.232959129203265E+02
0.234460356551743E+02
0.236376090418794E+02
0.238695754892074E+02
0.241406545353614E+02
0.244493464750694E+02
0.247939328914187E+02
0.251724728929530E+02
0.255827940977304E+02
0.260224778078720E+02
0.264888383770500E+02
0.269788974717917E+02
0.274893547309325E+02
0.280165571827793E+02
0.223757865548379E+02
0.223982354721979E+02
0.224653248791917E+02
0.225766690795224E+02
0.227316231906600E+02
0.229292902057688E+02
0.231685290371365E+02
0.234479623542191E+02
0.237659828439207E+02
0.241207564631191E+02
0.245102213445396E+02
0.249320812712951E+02
0.253837930585468E+02
0.258625477672004E+02
0.263652464044132E+02
0.268884716019841E+02
0.274284576507480E+02
0.216293551507858E+02
0.216525633829131E+02
0.217219179143374E+02
0.218369994855438E+02
0.219971084088507E+02
0.222012733816548E+02
0.224482618262863E+02
0.227365904351574E+02
0.230645343948432E+02
0.234301336973576E+02
0.238311950421065E+02
0.242652881013512E+02
0.247297353695597E+02
0.252215954347979E+02
0.257376402756590E+02
0.262743280603460E+02
0.268277738469848E+02
0.208693298403661E+02
0.208933416616452E+02
0.209650931100253E+02
0.210841283743707E+02
0.212496881226874E+02
0.214607202707823E+02
0.217158928852472E+02
0.220136077481056E+02
0.223520128836777E+02
0.227290122744472E+02
0.231422710929605E+02
0.235892150635306E+02
0.240670230427492E+02
0.245726125608544E+02
0.251026188710479E+02
0.256533689678855E+02
0.262208529974006E+02
0.201027259192278E+02
0.201275809553105E+02
0.202018472115214E+02
0.203250294251824E+02
0.204963039304970E+02
0.207145315884841E+02
0.209782735218722E+02
0.212858080136629E+02
0.216351466773430E+02
0.220240479239747E+02
0.224500258576612E+02
0.229103530373654E+02
0.234020560493975E+02
0.239219035272528E+02
0.244663871045295E+02
0.250316967457414E+02
0.256136929040982E+02
0.193362985238028E+02
0.193620309268650E+02
0.194389135288059E+02
0.195664088738678E+02
0.197436245355368E+02
0.199693284102785E+02
0.202419675485389E+02
0.205596886958436E+02
0.209203584399996E+02
0.213215807681448E+02
0.217607099507331E+02
0.222348569981790E+02
0.227408884767741E+02
0.232754172062612E+02
0.238347852587772E+02
0.244150406871013E+02
0.250119104606952E+02
</DataArray>
</PointData>
</Piece>
</RectilinearGrid>
</VTKFile>
