<?xml version="1.0"?>
<VTKFile type="RectilinearGrid" version="0.1" byte_order="LittleEndian">
<RectilinearGrid WholeExtent="0   63    0   63    0    3">
<Piece Extent="31   47   31   47    0    3">
<Coordinates>
<DataArray Name="x" type="Float32" format="ascii">
0.310000000000000E+01
0.320000000000000E+01
0.330000000000000E+01
0.340000000000000E+01
0.350000000000000E+01
0.360000000000000E+01
0.370000000000000E+01
0.380000000000000E+01
0.390000000000000E+01
0.400000000000000E+01
0.410000000000000E+01
0.420000000000000E+01
0.430000000000000E+01
0.440000000000000E+01
0.450000000000000E+01
0.460000000000000E+01
0.470000000000000E+01
</DataArray>
<DataArray Name="y" type="Float32" format="ascii">
0.310000000000000E+01
0.320000000000000E+01
0.330000000000000E+01
0.340000000000000E+01
0.350000000000000E+01
0.360000000000000E+01
0.370000000000000E+01
0.380000000000000E+01
0.390000000000000E+01
0.400000000000000E+01
0.410000000000000E+01
0.420000000000000E+01
0.430000000000000E+01
0.440000000000000E+01
0.450000000000000E+01
0.460000000000000E+01
0.470000000000000E+01
</DataArray>
<DataArray Name="z" type="Float32" format="ascii">
0.000000000000000E+00
0.100000000000000E+00
0.200000000000000E+00
0.300000000000000E+00
</DataArray>
</Coordinates>
<PointData Scalars="c">
<DataArray type="Float32" Name="c" format="ascii">
0.980298620669252E+01
0.984760554963343E+01
0.998077970031818E+01
0.102005074029281E+02
0.105035625161743E+02
0.108856484666134E+02
0.113415947948624E+02
0.118655789711774E+02
0.124513552701159E+02
0.130924729200435E+02
0.137824677317501E+02
0.145150145439929E+02
0.152840316162480E+02
0.160837320960979E+02
0.169086215485657E+02
0.177534440712126E+02
0.186130826999649E+02
0.984760272122428E+01
0.989210898120995E+01
0.100249473147782E+02
0.102441265381539E+02
0.105464365994105E+02
0.109276020567681E+02
0.113824773930141E+02
0.119052674545453E+02
0.124897549226077E+02
0.131295171426446E+02
0.138181166071828E+02
0.145492524946058E+02
0.153168644286547E+02
0.161151835914766E+02
0.169387301579858E+02
0.177822595372743E+02
0.186406630767371E+02
0.998077344861537E+01
0.100249438891817E+02
0.101567849300800E+02
0.103743352238515E+02
0.106744323830396E+02
0.110528635743365E+02
0.115045571889149E+02
0.120237992085784E+02
0.126044565237003E+02
0.132401898545716E+02
0.139246408412688E+02
0.146515808954474E+02
0.154150130814128E+02
0.162092221756454E+02
0.170287718151426E+02
0.178684511080852E+02
0.187231762169932E+02
0.102004957424241E+02
0.102441176998197E+02
0.103743298107641E+02
0.105892192155880E+02
0.108857009977654E+02
0.112596641044192E+02
0.117061571103462E+02
0.122195979808860E+02
0.127939906534299E+02
0.134231316165855E+02
0.141007914891594E+02
0.148208595024944E+02
0.155774423205931E+02
0.163649123749705E+02
0.171779045329755E+02
0.180112632925591E+02
0.188599457789567E+02
0.105035414296728E+02
0.105464183304950E+02
0.106744175415411E+02
0.108856915737602E+02
0.111772599765302E+02
0.115451489846002E+02
0.119845693514211E+02
0.124901172414705E+02
0.130559817567152E+02
0.136761429833472E+02
0.143445461477183E+02
0.150552402023818E+02
0.158024725028969E+02
0.165807347921723E+02
0.173847591909306E+02
0.182094661476321E+02
0.190498693104909E+02
0.108856106774877E+02
0.109275670815752E+02
0.110528320358603E+02
0.112596379998879E+02
0.115451323191419E+02
0.119055092443218E+02
0.123361781181456E+02
0.128319534714389E+02
0.133872515196013E+02
0.139962778039956E+02
0.146531922807434E+02
0.153522406870471E+02
0.160878441239276E+02
0.168546421247827E+02
0.176474877668764E+02
0.184613964921562E+02
0.192914532232892E+02
0.113415276965808E+02
0.113824131085096E+02
0.115044963650966E+02
0.117061017614687E+02
0.119845234891771E+02
0.123361489587502E+02
0.127566159821190E+02
0.132409905434162E+02
0.137839506900471E+02
0.143799622653641E+02
0.150234335992063E+02
0.157088385695185E+02
0.164308002957510E+02
0.171841307994909E+02
0.179638250348172E+02
0.187650106340011E+02
0.195828575301256E+02
0.118654613240211E+02
0.119051526286499E+02
0.120236878942348E+02
0.122194922272916E+02
0.124900210827961E+02
0.128318741265009E+02
0.132409404391765E+02
0.137125628590498E+02
0.142417081218771E+02
0.148231295799596E+02
0.154515105018462E+02
0.161215780035411E+02
0.168281802280304E+02
0.175663221884227E+02
0.183311585178487E+02
0.191179441312806E+02
0.199219465062236E+02
0.124511521161064E+02
0.124895546115535E+02
0.126042598214309E+02
0.127937996748134E+02
0.130558005869685E+02
0.133870874053719E+02
0.137838160487787E+02
0.142416237479309E+02
0.147557847234699E+02
0.153213591902454E+02
0.159333246182452E+02
0.165866799734032E+02
0.172765159358798E+02
0.179980466047417E+02
0.187466007761629E+02
0.195175734540000E+02
0.203063408318286E+02
0.130921279871788E+02
0.131291750988577E+02
0.132398515935299E+02
0.134227993695332E+02
0.136758209348101E+02
0.139959732730103E+02
0.143796876988455E+02
0.148229057337569E+02
0.153212200261920E+02
0.158700093280624E+02
0.164645574017511E+02
0.171001472692791E+02
0.177721241971397E+02
0.184759230326496E+02
0.192070578333857E+02
0.199610741090774E+02
0.207334664497680E+02
0.137818924117799E+02
0.138175442623850E+02
0.139240725761829E+02
0.141002297325657E+02
0.143439952616962E+02
0.146526597306304E+02
0.150229319290041E+02
0.154510604874365E+02
0.159329601221742E+02
0.164643326244996E+02
0.170407734044236E+02
0.176578556872396E+02
0.183111861584647E+02
0.189964277922192E+02
0.197092876753487E+02
0.204454698248359E+02
0.212005953234380E+02
0.145140723616337E+02
0.145483134366006E+02
0.146506464060408E+02
0.148199323345135E+02
0.150543250183036E+02
0.153513452160120E+02
0.157079755626199E+02
0.161207683563215E+02
0.165859575344245E+02
0.170995660230812E+02
0.176575001754993E+02
0.182556240677806E+02
0.188898078478378E+02
0.195559460024130E+02
0.202499432457670E+02
0.209676677319958E+02
0.217048734946271E+02
0.152825170052370E+02
0.153153531878371E+02
0.154135071901843E+02
0.155759450482650E+02
0.158009889999701E+02
0.160863825640838E+02
0.164293738085420E+02
0.168268099875573E+02
0.172752359191188E+02
0.177709882932028E+02
0.183102784836033E+02
0.188892572743986E+02
0.195040560872251E+02
0.201508007131785E+02
0.208255951673014E+02
0.215244751043218E+02
0.222433323139547E+02
0.160813423178605E+02
0.161127975735158E+02
0.162068427224694E+02
0.163625435583157E+02
0.165783825300143E+02
0.168523153056244E+02
0.171818431894601E+02
0.175640954826494E+02
0.179959151311913E+02
0.184739407822908E+02
0.189946786208409E+02
0.195545580007942E+02
0.201499658332398E+02
0.207772558803604E+02
0.214327305117302E+02
0.221125941342521E+02
0.228128794700546E+02
0.169049208033929E+02
0.169350337732014E+02
0.170250838410765E+02
0.171742302590375E+02
0.173811057089388E+02
0.176438650740967E+02
0.179602479117245E+02
0.183276495381139E+02
0.187431949513340E+02
0.192038095584042E+02
0.197062808102884E+02
0.202473053184626E+02
0.208235167708521E+02
0.214314909457672E+02
0.220677253425013E+02
0.227285924497716E+02
0.234102675264085E+02
0.177478193329361E+02
0.177766400581545E+02
0.178628427812107E+02
0.180056732144944E+02
0.182039031613406E+02
0.184558722640413E+02
0.187595414975193E+02
0.191125540505671E+02
0.195122986040836E+02
0.199559697308187E+02
0.204406201796754E+02
0.209632001286834E+02
0.215205790574345E+02
0.221095466886648E+02
0.227267905019655E+02
0.233688486873461E+02
0.240320391575321E+02
0.186046916132220E+02
0.186322785628421E+02
0.187148068399780E+02
0.188516012605902E+02
0.190415610463258E+02
0.192831953273309E+02
0.195746686380356E+02
0.199138526863812E+02
0.202983800948121E+02
0.207256955061685E+02
0.211930994044883E+02
0.216977801949241E+02
0.222368305014467E+02
0.228072442822402E+02
0.234058922697933E+02
0.240294744844563E+02
0.246744502276300E+02
0.980298620669252E+01
0.984760554963343E+01
0.998077970031818E+01
0.102005074029281E+02
0.105035625161743E+02
0.108856484666134E+02
0.113415947948624E+02
0.118655789711774E+02
0.124513552701159E+02
0.130924729200435E+02
0.137824677317501E+02
0.145150145439929E+02
0.152840316162480E+02
0.160837320960979E+02
0.169086215485657E+02
0.177534440712126E+02
0.186130826999649E+02
0.984760272122428E+01
0.989210898120995E+01
0.100249473147782E+02
0.102441265381539E+02
0.105464365994105E+02
0.109276020567681E+02
0.113824773930141E+02
0.119052674545453E+02
0.124897549226077E+02
0.131295171426446E+02
0.138181166071828E+02
0.145492524946058E+02
0.153168644286547E+02
0.161151835914766E+02
0.169387301579858E+02
0.177822595372743E+02
0.186406630767371E+02
0.998077344861537E+01
0.100249438891817E+02
0.101567849300800E+02
0.103743352238515E+02
0.106744323830396E+02
0.110528635743365E+02
0.115045571889149E+02
0.120237992085784E+02
0.126044565237003E+02
0.132401898545716E+02
0.139246408412688E+02
0.146515808954474E+02
0.154150130814128E+02
0.162092221756454E+02
0.170287718151426E+02
0.178684511080852E+02
0.187231762169932E+02
0.102004957424241E+02
0.102441176998197E+02
0.103743298107641E+02
0.105892192155880E+02
0.108857009977654E+02
0.112596641044192E+02
0.117061571103462E+02
0.122195979808860E+02
0.127939906534299E+02
0.134231316165855E+02
0.141007914891594E+02
0.148208595024944E+02
0.155774423205931E+02
0.163649123749705E+02
0.171779045329755E+02
0.180112632925591E+02
0.188599457789567E+02
0.105035414296728E+02
0.105464183304950E+02
0.106744175415411E+02
0.108856915737602E+02
0.111772599765302E+02
0.115451489846002E+02
0.119845693514211E+02
0.124901172414705E+02
0.130559817567152E+02
0.136761429833472E+02
0.143445461477183E+02
0.150552402023818E+02
0.158024725028969E+02
0.165807347921723E+02
0.173847591909306E+02
0.182094661476321E+02
0.190498693104909E+02
0.108856106774877E+02
0.109275670815752E+02
0.110528320358603E+02
0.112596379998879E+02
0.115451323191419E+02
0.119055092443218E+02
0.123361781181456E+02
0.128319534714389E+02
0.133872515196013E+02
0.139962778039956E+02
0.146531922807434E+02
0.153522406870471E+02
0.160878441239276E+02
0.168546421247827E+02
0.176474877668764E+02
0.184613964921562E+02
0.192914532232892E+02
0.113415276965808E+02
0.113824131085096E+02
0.115044963650966E+02
0.117061017614687E+02
0.119845234891771E+02
0.123361489587502E+02
0.127566159821190E+02
0.132409905434162E+02
0.137839506900471E+02
0.143799622653641E+02
0.150234335992063E+02
0.157088385695185E+02
0.164308002957510E+02
0.171841307994909E+02
0.179638250348172E+02
0.187650106340011E+02
0.195828575301256E+02
0.118654613240211E+02
0.119051526286499E+02
0.120236878942348E+02
0.122194922272916E+02
0.124900210827961E+02
0.128318741265009E+02
0.132409404391765E+02
0.137125628590498E+02
0.142417081218771E+02
0.148231295799596E+02
0.154515105018462E+02
0.161215780035411E+02
0.168281802280304E+02
0.175663221884227E+02
0.183311585178487E+02
0.191179441312806E+02
0.199219465062236E+02
0.124511521161064E+02
0.124895546115535E+02
0.126042598214309E+02
0.127937996748134E+02
0.130558005869685E+02
0.133870874053719E+02
0.137838160487787E+02
0.142416237479309E+02
0.147557847234699E+02
0.153213591902454E+02
0.159333246182452E+02
0.165866799734032E+02
0.172765159358798E+02
0.179980466047417E+02
0.187466007761629E+02
0.195175734540000E+02
0.203063408318286E+02
0.130921279871788E+02
0.131291750988577E+02
0.132398515935299E+02
0.134227993695332E+02
0.136758209348101E+02
0.139959732730103E+02
0.143796876988455E+02
0.148229057337569E+02
0.153212200261920E+02
0.158700093280624E+02
0.164645574017511E+02
0.171001472692791E+02
0.177721241971397E+02
0.184759230326496E+02
0.192070578333857E+02
0.199610741090774E+02
0.207334664497680E+02
0.137818924117799E+02
0.138175442623850E+02
0.139240725761829E+02
0.141002297325657E+02
0.143439952616962E+02
0.146526597306304E+02
0.150229319290041E+02
0.154510604874365E+02
0.159329601221742E+02
0.164643326244996E+02
0.170407734044236E+02
0.176578556872396E+02
0.183111861584647E+02
0.189964277922192E+02
0.197092876753487E+02
0.204454698248359E+02
0.212005953234380E+02
0.145140723616337E+02
0.145483134366006E+02
0.146506464060408E+02
0.148199323345135E+02
0.150543250183036E+02
0.153513452160120E+02
0.157079755626199E+02
0.161207683563215E+02
0.165859575344245E+02
0.170995660230812E+02
0.176575001754993E+02
0.182556240677806E+02
0.188898078478378E+02
0.195559460024130E+02
0.202499432457670E+02
0.209676677319958E+02
0.217048734946271E+02
0.152825170052370E+02
0.153153531878371E+02
0.154135071901843E+02
0.155759450482650E+02
0.158009889999701E+02
0.160863825640838E+02
0.164293738085420E+02
0.168268099875573E+02
0.172752359191188E+02
0.177709882932028E+02
0.183102784836033E+02
0.188892572743986E+02
0.195040560872251E+02
0.201508007131785E+02
0.208255951673014E+02
0.215244751043218E+02
0.222433323139547E+02
0.160813423178605E+02
0.161127975735158E+02
0.162068427224694E+02
0.163625435583157E+02
0.165783825300143E+02
0.168523153056244E+02
0.171818431894601E+02
0.175640954826494E+02
0.179959151311913E+02
0.184739407822908E+02
0.189946786208409E+02
0.195545580007942E+02
0.201499658332398E+02
0.207772558803604E+02
0.214327305117302E+02
0.221125941342521E+02
0.228128794700546E+02
0.169049208033929E+02
0.169350337732014E+02
0.170250838410765E+02
0.171742302590375E+02
0.173811057089388E+02
0.176438650740967E+02
0.179602479117245E+02
0.183276495381139E+02
0.187431949513340E+02
0.192038095584042E+02
0.197062808102884E+02
0.202473053184626E+02
0.208235167708521E+02
0.214314909457672E+02
0.220677253425013E+02
0.227285924497716E+02
0.234102675264085E+02
0.177478193329361E+02
0.177766400581545E+02
0.178628427812107E+02
0.180056732144944E+02
0.182039031613406E+02
0.184558722640413E+02
0.187595414975193E+02
0.191125540505671E+02
0.195122986040836E+02
0.199559697308187E+02
0.204406201796754E+02
0.209632001286834E+02
0.215205790574345E+02
0.221095466886648E+02
0.227267905019655E+02
0.233688486873461E+02
0.240320391575321E+02
0.186046916132220E+02
0.186322785628421E+02
0.187148068399780E+02
0.188516012605902E+02
0.190415610463258E+02
0.192831953273309E+02
0.195746686380356E+02
0.199138526863812E+02
0.202983800948121E+02
0.207256955061685E+02
0.211930994044883E+02
0.216977801949241E+02
0.222368305014467E+02
0.228072442822402E+02
0.234058922697933E+02
0.240294744844563E+02
0.246744502276300E+02
0.980298620669252E+01
0.984760554963343E+01
0.998077970031818E+01
0.102005074029281E+02
0.105035625161743E+02
0.108856484666134E+02
0.113415947948624E+02
0.118655789711774E+02
0.124513552701159E+02
0.130924729200435E+02
0.137824677317501E+02
0.145150145439929E+02
0.152840316162480E+02
0.160837320960979E+02
0.169086215485657E+02
0.177534440712126E+02
0.186130826999649E+02
0.984760272122428E+01
0.989210898120995E+01
0.100249473147782E+02
0.102441265381539E+02
0.105464365994105E+02
0.109276020567681E+02
0.113824773930141E+02
0.119052674545453E+02
0.124897549226077E+02
0.131295171426446E+02
0.138181166071828E+02
0.145492524946058E+02
0.153168644286547E+02
0.161151835914766E+02
0.169387301579858E+02
0.177822595372743E+02
0.186406630767371E+02
0.998077344861537E+01
0.100249438891817E+02
0.101567849300800E+02
0.103743352238515E+02
0.106744323830396E+02
0.110528635743365E+02
0.115045571889149E+02
0.120237992085784E+02
0.126044565237003E+02
0.132401898545716E+02
0.139246408412688E+02
0.146515808954474E+02
0.154150130814128E+02
0.162092221756454E+02
0.170287718151426E+02
0.178684511080852E+02
0.187231762169932E+02
0.102004957424241E+02
0.102441176998197E+02
0.103743298107641E+02
0.105892192155880E+02
0.108857009977654E+02
0.112596641044192E+02
0.117061571103462E+02
0.122195979808860E+02
0.127939906534299E+02
0.134231316165855E+02
0.141007914891594E+02
0.148208595024944E+02
0.155774423205931E+02
0.163649123749705E+02
0.171779045329755E+02
0.180112632925591E+02
0.188599457789567E+02
0.105035414296728E+02
0.105464183304950E+02
0.106744175415411E+02
0.108856915737602E+02
0.111772599765302E+02
0.115451489846002E+02
0.119845693514211E+02
0.124901172414705E+02
0.130559817567152E+02
0.136761429833472E+02
0.143445461477183E+02
0.150552402023818E+02
0.158024725028969E+02
0.165807347921723E+02
0.173847591909306E+02
0.182094661476321E+02
0.190498693104909E+02
0.108856106774877E+02
0.109275670815752E+02
0.110528320358603E+02
0.112596379998879E+02
0.115451323191419E+02
0.119055092443218E+02
0.123361781181456E+02
0.128319534714389E+02
0.133872515196013E+02
0.139962778039956E+02
0.146531922807434E+02
0.153522406870471E+02
0.160878441239276E+02
0.168546421247827E+02
0.176474877668764E+02
0.184613964921562E+02
0.192914532232892E+02
0.113415276965808E+02
0.113824131085096E+02
0.115044963650966E+02
0.117061017614687E+02
0.119845234891771E+02
0.123361489587502E+02
0.127566159821190E+02
0.132409905434162E+02
0.137839506900471E+02
0.143799622653641E+02
0.150234335992063E+02
0.157088385695185E+02
0.164308002957510E+02
0.171841307994909E+02
0.179638250348172E+02
0.187650106340011E+02
0.195828575301256E+02
0.118654613240211E+02
0.119051526286499E+02
0.120236878942348E+02
0.122194922272916E+02
0.124900210827961E+02
0.128318741265009E+02
0.132409404391765E+02
0.137125628590498E+02
0.142417081218771E+02
0.148231295799596E+02
0.154515105018462E+02
0.161215780035411E+02
0.168281802280304E+02
0.175663221884227E+02
0.183311585178487E+02
0.191179441312806E+02
0.199219465062236E+02
0.124511521161064E+02
0.124895546115535E+02
0.126042598214309E+02
0.127937996748134E+02
0.130558005869685E+02
0.133870874053719E+02
0.137838160487787E+02
0.142416237479309E+02
0.147557847234699E+02
0.153213591902454E+02
0.159333246182452E+02
0.165866799734032E+02
0.172765159358798E+02
0.179980466047417E+02
0.187466007761629E+02
0.195175734540000E+02
0.203063408318286E+02
0.130921279871788E+02
0.131291750988577E+02
0.132398515935299E+02
0.134227993695332E+02
0.136758209348101E+02
0.139959732730103E+02
0.143796876988455E+02
0.148229057337569E+02
0.153212200261920E+02
0.158700093280624E+02
0.164645574017511E+02
0.171001472692791E+02
0.177721241971397E+02
0.184759230326496E+02
0.192070578333857E+02
0.199610741090774E+02
0.207334664497680E+02
0.137818924117799E+02
0.138175442623850E+02
0.139240725761829E+02
0.141002297325657E+02
0.143439952616962E+02
0.146526597306304E+02
0.150229319290041E+02
0.154510604874365E+02
0.159329601221742E+02
0.164643326244996E+02
0.170407734044236E+02
0.176578556872396E+02
0.183111861584647E+02
0.189964277922192E+02
0.197092876753487E+02
0.204454698248359E+02
0.212005953234380E+02
0.145140723616337E+02
0.145483134366006E+02
0.146506464060408E+02
0.148199323345135E+02
0.150543250183036E+02
0.153513452160120E+02
0.157079755626199E+02
0.161207683563215E+02
0.165859575344245E+02
0.170995660230812E+02
0.176575001754993E+02
0.182556240677806E+02
0.188898078478378E+02
0.195559460024130E+02
0.202499432457670E+02
0.209676677319958E+02
0.217048734946271E+02
0.152825170052370E+02
0.153153531878371E+02
0.154135071901843E+02
0.155759450482650E+02
0.158009889999701E+02
0.160863825640838E+02
0.164293738085420E+02
0.168268099875573E+02
0.172752359191188E+02
0.177709882932028E+02
0.183102784836033E+02
0.188892572743986E+02
0.195040560872251E+02
0.201508007131785E+02
0.208255951673014E+02
0.215244751043218E+02
0.222433323139547E+02
0.160813423178605E+02
0.161127975735158E+02
0.162068427224694E+02
0.163625435583157E+02
0.165783825300143E+02
0.168523153056244E+02
0.171818431894601E+02
0.175640954826494E+02
0.179959151311913E+02
0.184739407822908E+02
0.189946786208409E+02
0.195545580007942E+02
0.201499658332398E+02
0.207772558803604E+02
0.214327305117302E+02
0.221125941342521E+02
0.228128794700546E+02
0.169049208033929E+02
0.169350337732014E+02
0.170250838410765E+02
0.171742302590375E+02
0.173811057089388E+02
0.176438650740967E+02
0.179602479117245E+02
0.183276495381139E+02
0.187431949513340E+02
0.192038095584042E+02
0.197062808102884E+02
0.202473053184626E+02
0.208235167708521E+02
0.214314909457672E+02
0.220677253425013E+02
0.227285924497716E+02
0.234102675264085E+02
0.177478193329361E+02
0.177766400581545E+02
0.178628427812107E+02
0.180056732144944E+02
0.182039031613406E+02
0.184558722640413E+02
0.187595414975193E+02
0.191125540505671E+02
0.195122986040836E+02
0.199559697308187E+02
0.204406201796754E+02
0.209632001286834E+02
0.215205790574345E+02
0.221095466886648E+02
0.227267905019655E+02
0.233688486873461E+02
0.240320391575321E+02
0.186046916132220E+02
0.186322785628421E+02
0.187148068399780E+02
0.188516012605902E+02
0.190415610463258E+02
0.192831953273309E+02
0.195746686380356E+02
0.199138526863812E+02
0.202983800948121E+02
0.207256955061685E+02
0.211930994044883E+02
0.216977801949241E+02
0.222368305014467E+02
0.228072442822402E+02
0.234058922697933E+02
0.240294744844563E+02
0.246744502276300E+02
0.980298620669252E+01
0.984760554963343E+01
0.998077970031818E+01
0.102005074029281E+02
0.105035625161743E+02
0.108856484666134E+02
0.113415947948624E+02
0.118655789711774E+02
0.124513552701159E+02
0.130924729200435E+02
0.137824677317501E+02
0.145150145439929E+02
0.152840316162480E+02
0.160837320960979E+02
0.169086215485657E+02
0.177534440712126E+02
0.186130826999649E+02
0.984760272122428E+01
0.989210898120995E+01
0.100249473147782E+02
0.102441265381539E+02
0.105464365994105E+02
0.109276020567681E+02
0.113824773930141E+02
0.119052674545453E+02
0.124897549226077E+02
0.131295171426446E+02
0.138181166071828E+02
0.145492524946058E+02
0.153168644286547E+02
0.161151835914766E+02
0.169387301579858E+02
0.177822595372743E+02
0.186406630767371E+02
0.998077344861537E+01
0.100249438891817E+02
0.101567849300800E+02
0.103743352238515E+02
0.106744323830396E+02
0.110528635743365E+02
0.115045571889149E+02
0.120237992085784E+02
0.126044565237003E+02
0.132401898545716E+02
0.139246408412688E+02
0.146515808954474E+02
0.154150130814128E+02
0.162092221756454E+02
0.170287718151426E+02
0.178684511080852E+02
0.187231762169932E+02
0.102004957424241E+02
0.102441176998197E+02
0.103743298107641E+02
0.105892192155880E+02
0.108857009977654E+02
0.112596641044192E+02
0.117061571103462E+02
0.122195979808860E+02
0.127939906534299E+02
0.134231316165855E+02
0.141007914891594E+02
0.148208595024944E+02
0.155774423205931E+02
0.163649123749705E+02
0.171779045329755E+02
0.180112632925591E+02
0.188599457789567E+02
0.105035414296728E+02
0.105464183304950E+02
0.106744175415411E+02
0.108856915737602E+02
0.111772599765302E+02
0.115451489846002E+02
0.119845693514211E+02
0.124901172414705E+02
0.130559817567152E+02
0.136761429833472E+02
0.143445461477183E+02
0.150552402023818E+02
0.158024725028969E+02
0.165807347921723E+02
0.173847591909306E+02
0.182094661476321E+02
0.190498693104909E+02
0.108856106774877E+02
0.109275670815752E+02
0.110528320358603E+02
0.112596379998879E+02
0.115451323191419E+02
0.119055092443218E+02
0.123361781181456E+02
0.128319534714389E+02
0.133872515196013E+02
0.139962778039956E+02
0.146531922807434E+02
0.153522406870471E+02
0.160878441239276E+02
0.168546421247827E+02
0.176474877668764E+02
0.184613964921562E+02
0.192914532232892E+02
0.113415276965808E+02
0.113824131085096E+02
0.115044963650966E+02
0.117061017614687E+02
0.119845234891771E+02
0.123361489587502E+02
0.127566159821190E+02
0.132409905434162E+02
0.137839506900471E+02
0.143799622653641E+02
0.150234335992063E+02
0.157088385695185E+02
0.164308002957510E+02
0.171841307994909E+02
0.179638250348172E+02
0.187650106340011E+02
0.195828575301256E+02
0.118654613240211E+02
0.119051526286499E+02
0.120236878942348E+02
0.122194922272916E+02
0.124900210827961E+02
0.128318741265009E+02
0.132409404391765E+02
0.137125628590498E+02
0.142417081218771E+02
0.148231295799596E+02
0.154515105018462E+02
0.161215780035411E+02
0.168281802280304E+02
0.175663221884227E+02
0.183311585178487E+02
0.191179441312806E+02
0.199219465062236E+02
0.124511521161064E+02
0.124895546115535E+02
0.126042598214309E+02
0.127937996748134E+02
0.130558005869685E+02
0.133870874053719E+02
0.137838160487787E+02
0.142416237479309E+02
0.147557847234699E+02
0.153213591902454E+02
0.159333246182452E+02
0.165866799734032E+02
0.172765159358798E+02
0.179980466047417E+02
0.187466007761629E+02
0.195175734540000E+02
0.203063408318286E+02
0.130921279871788E+02
0.131291750988577E+02
0.132398515935299E+02
0.134227993695332E+02
0.136758209348101E+02
0.139959732730103E+02
0.143796876988455E+02
0.148229057337569E+02
0.153212200261920E+02
0.158700093280624E+02
0.164645574017511E+02
0.171001472692791E+02
0.177721241971397E+02
0.184759230326496E+02
0.192070578333857E+02
0.199610741090774E+02
0.207334664497680E+02
0.137818924117799E+02
0.138175442623850E+02
0.139240725761829E+02
0.141002297325657E+02
0.143439952616962E+02
0.146526597306304E+02
0.150229319290041E+02
0.154510604874365E+02
0.159329601221742E+02
0.164643326244996E+02
0.170407734044236E+02
0.176578556872396E+02
0.183111861584647E+02
0.189964277922192E+02
0.197092876753487E+02
0.204454698248359E+02
0.212005953234380E+02
0.145140723616337E+02
0.145483134366006E+02
0.146506464060408E+02
0.148199323345135E+02
0.150543250183036E+02
0.153513452160120E+02
0.157079755626199E+02
0.161207683563215E+02
0.165859575344245E+02
0.170995660230812E+02
0.176575001754993E+02
0.182556240677806E+02
0.188898078478378E+02
0.195559460024130E+02
0.202499432457670E+02
0.209676677319958E+02
0.217048734946271E+02
0.152825170052370E+02
0.153153531878371E+02
0.154135071901843E+02
0.155759450482650E+02
0.158009889999701E+02
0.160863825640838E+02
0.164293738085420E+02
0.168268099875573E+02
0.172752359191188E+02
0.177709882932028E+02
0.183102784836033E+02
0.188892572743986E+02
0.195040560872251E+02
0.201508007131785E+02
0.208255951673014E+02
0.215244751043218E+02
0.222433323139547E+02
0.160813423178605E+02
0.161127975735158E+02
0.162068427224694E+02
0.163625435583157E+02
0.165783825300143E+02
0.168523153056244E+02
0.171818431894601E+02
0.175640954826494E+02
0.179959151311913E+02
0.184739407822908E+02
0.189946786208409E+02
0.195545580007942E+02
0.201499658332398E+02
0.207772558803604E+02
0.214327305117302E+02
0.221125941342521E+02
0.228128794700546E+02
0.169049208033929E+02
0.169350337732014E+02
0.170250838410765E+02
0.171742302590375E+02
0.173811057089388E+02
0.176438650740967E+02
0.179602479117245E+02
0.183276495381139E+02
0.187431949513340E+02
0.192038095584042E+02
0.197062808102884E+02
0.202473053184626E+02
0.208235167708521E+02
0.214314909457672E+02
0.220677253425013E+02
0.227285924497716E+02
0.234102675264085E+02
0.177478193329361E+02
0.177766400581545E+02
0.178628427812107E+02
0.180056732144944E+02
0.182039031613406E+02
0.184558722640413E+02
0.187595414975193E+02
0.191125540505671E+02
0.195122986040836E+02
0.199559697308187E+02
0.204406201796754E+02
0.209632001286834E+02
0.215205790574345E+02
0.221095466886648E+02
0.227267905019655E+02
0.233688486873461E+02
0.240320391575321E+02
0.186046916132220E+02
0.186322785628421E+02
0.187148068399780E+02
0.188516012605902E+02
0.190415610463258E+02
0.192831953273309E+02
0.195746686380356E+02
0.199138526863812E+02
0.202983800948121E+02
0.207256955061685E+02
0.211930994044883E+02
0.216977801949241E+02
0.222368305014467E+02
0.228072442822402E+02
0.234058922697933E+02
0.240294744844563E+02
0.246744502276300E+02
</DataArray>
</PointData>
</Piece>
</RectilinearGrid>
</VTKFile>
