<?xml version="1.0"?>
<VTKFile type="RectilinearGrid" version="0.1" byte_order="LittleEndian">
<RectilinearGrid WholeExtent="0   63    0   63    0    3">
<Piece Extent="15   31   31   47    0    3">
<Coordinates>
<DataArray Name="x" type="Float32" format="ascii">
0.150000000000000E+01
0.160000000000000E+01
0.170000000000000E+01
0.180000000000000E+01
0.190000000000000E+01
0.200000000000000E+01
0.210000000000000E+01
0.220000000000000E+01
0.230000000000000E+01
0.240000000000000E+01
0.250000000000000E+01
0.260000000000000E+01
0.270000000000000E+01
0.280000000000000E+01
0.290000000000000E+01
0.300000000000000E+01
0.310000000000000E+01
</DataArray>
<DataArray Name="y" type="Float32" format="ascii">
0.310000000000000E+01
0.320000000000000E+01
0.330000000000000E+01
0.340000000000000E+01
0.350000000000000E+01
0.360000000000000E+01
0.370000000000000E+01
0.380000000000000E+01
0.390000000000000E+01
0.400000000000000E+01
0.410000000000000E+01
0.420000000000000E+01
0.430000000000000E+01
0.440000000000000E+01
0.450000000000000E+01
0.460000000000000E+01
0.470000000000000E+01
</DataArray>
<DataArray Name="z" type="Float32" format="ascii">
0.000000000000000E+00
0.100000000000000E+00
0.200000000000000E+00
0.300000000000000E+00
</DataArray>
</Coordinates>
<PointData Scalars="c">
<DataArray type="Float32" Name="c" format="ascii">
0.222847131614384E+02
0.219526732168440E+02
0.216236568342436E+02
0.213009317425608E+02
0.209876928969678E+02
0.206870325394492E+02
0.204019117887904E+02
0.201351339656665E+02
0.198893198258216E+02
0.196668848434058E+02
0.194700186579913E+02
0.193006667730443E+02
0.191605145709544E+02
0.190509736902341E+02
0.189731707941745E+02
0.189279387469305E+02
0.189158102024600E+02
0.222994667491824E+02
0.219676136125214E+02
0.216387829946165E+02
0.213162407600503E+02
0.210031800170493E+02
0.207026911971433E+02
0.204177336642564E+02
0.201511090586691E+02
0.199054365485873E+02
0.196831301311287E+02
0.194863780959902E+02
0.193171247393172E+02
0.191770543926352E+02
0.190675778122310E+02
0.189898209580672E+02
0.189446161780337E+02
0.189324958028204E+02
0.223435943337798E+02
0.220122997091990E+02
0.216840244831643E+02
0.213620289463634E+02
0.210495006851782E+02
0.207495247184307E+02
0.204650551635842E+02
0.201988886371219E+02
0.199536395610894E+02
0.197317175168413E+02
0.195353067584813E+02
0.193663479727576E+02
0.192265223495500E+02
0.191172380076621E+02
0.190396188044027E+02
0.189944955442436E+02
0.189823995914292E+02
0.224166973299507E+02
0.220863272093089E+02
0.217589713184728E+02
0.214378807218326E+02
0.211262338657727E+02
0.208271068099005E+02
0.205434449877623E+02
0.202780367005859E+02
0.200334885147945E+02
0.198122027030584E+02
0.196163568400924E+02
0.194478856387093E+02
0.193084650890623E+02
0.191994989446828E+02
0.191221075827993E+02
0.190771192533767E+02
0.190650637210707E+02
0.225181146003572E+02
0.221890255308711E+02
0.218629435210863E+02
0.215431068511810E+02
0.212326813032021E+02
0.209347305231881E+02
0.206521879128131E+02
0.203878302524536E+02
0.201442532247040E+02
0.199238489763431E+02
0.197287858281898E+02
0.195609902166213E+02
0.194221309280286E+02
0.193136056682768E+02
0.192365299932800E+02
0.191917286139560E+02
0.191797290788127E+02
0.226469272218942E+02
0.223194626861426E+02
0.219949961041603E+02
0.216767495446911E+02
0.213678727308516E+02
0.210714135681981E+02
0.207902902023422E+02
0.205272648059377E+02
0.202849192618907E+02
0.200656328785621E+02
0.198715622441580E+02
0.197046233018858E+02
0.195664757050497E+02
0.194585094922068E+02
0.193818341067546E+02
0.193372697727243E+02
0.193253412288451E+02
0.228019651752423E+02
0.224764521257162E+02
0.221539260716090E+02
0.218375896083468E+02
0.215305731696470E+02
0.212359057548626E+02
0.209564871858775E+02
0.206950620908885E+02
0.204541957793151E+02
0.202362521409294E+02
0.200433736737166E+02
0.198774637194071E+02
0.197401709633418E+02
0.196328762364577E+02
0.195566816416790E+02
0.195124020147081E+02
0.195005587198540E+02
0.229818159710889E+02
0.226585615588153E+02
0.223382814318350E+02
0.220241556484022E+02
0.217192923189162E+02
0.214266985638156E+02
0.211492530009929E+02
0.208896799571857E+02
0.206505255645745E+02
0.204341358725869E+02
0.202426370763187E+02
0.200779179374717E+02
0.199416144515681E+02
0.198350967965377E+02
0.197594585825560E+02
0.197155084110747E+02
0.197037637420350E+02
0.231848352255946E+02
0.228641237590794E+02
0.225463722330510E+02
0.222347353331384E+02
0.219322960391605E+02
0.216420368424741E+02
0.213668124927587E+02
0.211093244654643E+02
0.208720973077640E+02
0.206574569895437E+02
0.204675113573557E+02
0.203041327638259E+02
0.201689429230176E+02
0.200633000238286E+02
0.199882881186011E+02
0.199447087925815E+02
0.199330751113759E+02
0.234091591935620E+02
0.230912493604778E+02
0.227762836210128E+02
0.224673887088467E+02
0.221676199200807E+02
0.218799326162893E+02
0.216071552568583E+02
0.213519641482850E+02
0.211168600645600E+02
0.209041468613536E+02
0.207159121781084E+02
0.205540102967861E+02
0.204200472041932E+02
0.203153678866522E+02
0.202410458712370E+02
0.201978750166788E+02
0.201863635490685E+02
0.236527192598434E+02
0.233378416396406E+02
0.230258909112098E+02
0.227199635578854E+02
0.224230849175870E+02
0.221381809949168E+02
0.218680518023139E+02
0.216153464141033E+02
0.213825398835480E+02
0.211719121415130E+02
0.209855289667212E+02
0.208252250923133E+02
0.206925894917821E+02
0.205889528694801E+02
0.205153773667271E+02
0.204726484839026E+02
0.204612692114687E+02
0.239132583774261E+02
0.236016132684864E+02
0.232928766548287E+02
0.229901127736142E+02
0.226963150301850E+02
0.224143781394252E+02
0.221470717958560E+02
0.218970160522202E+02
0.216666585524039E+02
0.214582537329320E+02
0.212738440786452E+02
0.211152434929800E+02
0.209840228218392E+02
0.208814975524600E+02
0.208087176949259E+02
0.207664598438157E+02
0.207552214106281E+02
0.241883494241512E+02
0.238801050043395E+02
0.235747496609310E+02
0.232753137099421E+02
0.229847569678679E+02
0.227059412392180E+02
0.224416043323559E+02
0.221943357791219E+02
0.219665543996104E+02
0.217604878217655E+02
0.215781540368142E+02
0.214213450464741E+02
0.212916126366390E+02
0.211902562949900E+02
0.211183132766329E+02
0.210765508122368E+02
0.210654604468927E+02
0.244754154291125E+02
0.241707062637440E+02
0.238688659162103E+02
0.235728894420721E+02
0.232857017454214E+02
0.230101304260496E+02
0.227488801543773E+02
0.225045087451883E+02
0.222794050669098E+02
0.220757688913601E+02
0.218955927602413E+02
0.217406459196677E+02
0.216124603530104E+02
0.215123189254030E+02
0.214412456403521E+02
0.213999979998008E+02
0.213890614533696E+02
0.247717515946133E+02
0.244706775010358E+02
0.241724513185882E+02
0.238800318499513E+02
0.235963081070011E+02
0.233240725275062E+02
0.230659957189267E+02
0.228246028958103E+02
0.226022521427814E+02
0.224011146031944E+02
0.222231566648691E+02
0.220701241894527E+02
0.219435288111584E+02
0.218446363140377E+02
0.217744570844842E+02
0.217337386271289E+02
0.217229601272968E+02
0.250745490104858E+02
0.247771742838020E+02
0.244826261121036E+02
0.241938264072664E+02
0.239136276603156E+02
0.236447865339212E+02
0.233899389812137E+02
0.231515770528054E+02
0.229320275192019E+02
0.227334324037577E+02
0.225577314926767E+02
0.224066468637929E+02
0.222816694552997E+02
0.221840476793433E+02
0.221147780733941E+02
0.220745979743283E+02
0.220639801958065E+02
0.253809199252033E+02
0.250872729251965E+02
0.247964308786228E+02
0.245112785271224E+02
0.242346315672621E+02
0.239692106214331E+02
0.237176167341735E+02
0.234823085511670E+02
0.232655813032742E+02
0.230695476858192E+02
0.228961206946998E+02
0.227469984562369E+02
0.226236510673410E+02
0.225273094466637E+02
0.224589561858574E+02
0.224193183826423E+02
0.224088624336864E+02
0.222847131614384E+02
0.219526732168440E+02
0.216236568342436E+02
0.213009317425608E+02
0.209876928969678E+02
0.206870325394492E+02
0.204019117887904E+02
0.201351339656665E+02
0.198893198258216E+02
0.196668848434058E+02
0.194700186579913E+02
0.193006667730443E+02
0.191605145709544E+02
0.190509736902341E+02
0.189731707941745E+02
0.189279387469305E+02
0.189158102024600E+02
0.222994667491824E+02
0.219676136125214E+02
0.216387829946165E+02
0.213162407600503E+02
0.210031800170493E+02
0.207026911971433E+02
0.204177336642564E+02
0.201511090586691E+02
0.199054365485873E+02
0.196831301311287E+02
0.194863780959902E+02
0.193171247393172E+02
0.191770543926352E+02
0.190675778122310E+02
0.189898209580672E+02
0.189446161780337E+02
0.189324958028204E+02
0.223435943337798E+02
0.220122997091990E+02
0.216840244831643E+02
0.213620289463634E+02
0.210495006851782E+02
0.207495247184307E+02
0.204650551635842E+02
0.201988886371219E+02
0.199536395610894E+02
0.197317175168413E+02
0.195353067584813E+02
0.193663479727576E+02
0.192265223495500E+02
0.191172380076621E+02
0.190396188044027E+02
0.189944955442436E+02
0.189823995914292E+02
0.224166973299507E+02
0.220863272093089E+02
0.217589713184728E+02
0.214378807218326E+02
0.211262338657727E+02
0.208271068099005E+02
0.205434449877623E+02
0.202780367005859E+02
0.200334885147945E+02
0.198122027030584E+02
0.196163568400924E+02
0.194478856387093E+02
0.193084650890623E+02
0.191994989446828E+02
0.191221075827993E+02
0.190771192533767E+02
0.190650637210707E+02
0.225181146003572E+02
0.221890255308711E+02
0.218629435210863E+02
0.215431068511810E+02
0.212326813032021E+02
0.209347305231881E+02
0.206521879128131E+02
0.203878302524536E+02
0.201442532247040E+02
0.199238489763431E+02
0.197287858281898E+02
0.195609902166213E+02
0.194221309280286E+02
0.193136056682768E+02
0.192365299932800E+02
0.191917286139560E+02
0.191797290788127E+02
0.226469272218942E+02
0.223194626861426E+02
0.219949961041603E+02
0.216767495446911E+02
0.213678727308516E+02
0.210714135681981E+02
0.207902902023422E+02
0.205272648059377E+02
0.202849192618907E+02
0.200656328785621E+02
0.198715622441580E+02
0.197046233018858E+02
0.195664757050497E+02
0.194585094922068E+02
0.193818341067546E+02
0.193372697727243E+02
0.193253412288451E+02
0.228019651752423E+02
0.224764521257162E+02
0.221539260716090E+02
0.218375896083468E+02
0.215305731696470E+02
0.212359057548626E+02
0.209564871858775E+02
0.206950620908885E+02
0.204541957793151E+02
0.202362521409294E+02
0.200433736737166E+02
0.198774637194071E+02
0.197401709633418E+02
0.196328762364577E+02
0.195566816416790E+02
0.195124020147081E+02
0.195005587198540E+02
0.229818159710889E+02
0.226585615588153E+02
0.223382814318350E+02
0.220241556484022E+02
0.217192923189162E+02
0.214266985638156E+02
0.211492530009929E+02
0.208896799571857E+02
0.206505255645745E+02
0.204341358725869E+02
0.202426370763187E+02
0.200779179374717E+02
0.199416144515681E+02
0.198350967965377E+02
0.197594585825560E+02
0.197155084110747E+02
0.197037637420350E+02
0.231848352255946E+02
0.228641237590794E+02
0.225463722330510E+02
0.222347353331384E+02
0.219322960391605E+02
0.216420368424741E+02
0.213668124927587E+02
0.211093244654643E+02
0.208720973077640E+02
0.206574569895437E+02
0.204675113573557E+02
0.203041327638259E+02
0.201689429230176E+02
0.200633000238286E+02
0.199882881186011E+02
0.199447087925815E+02
0.199330751113759E+02
0.234091591935620E+02
0.230912493604778E+02
0.227762836210128E+02
0.224673887088467E+02
0.221676199200807E+02
0.218799326162893E+02
0.216071552568583E+02
0.213519641482850E+02
0.211168600645600E+02
0.209041468613536E+02
0.207159121781084E+02
0.205540102967861E+02
0.204200472041932E+02
0.203153678866522E+02
0.202410458712370E+02
0.201978750166788E+02
0.201863635490685E+02
0.236527192598434E+02
0.233378416396406E+02
0.230258909112098E+02
0.227199635578854E+02
0.224230849175870E+02
0.221381809949168E+02
0.218680518023139E+02
0.216153464141033E+02
0.213825398835480E+02
0.211719121415130E+02
0.209855289667212E+02
0.208252250923133E+02
0.206925894917821E+02
0.205889528694801E+02
0.205153773667271E+02
0.204726484839026E+02
0.204612692114687E+02
0.239132583774261E+02
0.236016132684864E+02
0.232928766548287E+02
0.229901127736142E+02
0.226963150301850E+02
0.224143781394252E+02
0.221470717958560E+02
0.218970160522202E+02
0.216666585524039E+02
0.214582537329320E+02
0.212738440786452E+02
0.211152434929800E+02
0.209840228218392E+02
0.208814975524600E+02
0.208087176949259E+02
0.207664598438157E+02
0.207552214106281E+02
0.241883494241512E+02
0.238801050043395E+02
0.235747496609310E+02
0.232753137099421E+02
0.229847569678679E+02
0.227059412392180E+02
0.224416043323559E+02
0.221943357791219E+02
0.219665543996104E+02
0.217604878217655E+02
0.215781540368142E+02
0.214213450464741E+02
0.212916126366390E+02
0.211902562949900E+02
0.211183132766329E+02
0.210765508122368E+02
0.210654604468927E+02
0.244754154291125E+02
0.241707062637440E+02
0.238688659162103E+02
0.235728894420721E+02
0.232857017454214E+02
0.230101304260496E+02
0.227488801543773E+02
0.225045087451883E+02
0.222794050669098E+02
0.220757688913601E+02
0.218955927602413E+02
0.217406459196677E+02
0.216124603530104E+02
0.215123189254030E+02
0.214412456403521E+02
0.213999979998008E+02
0.213890614533696E+02
0.247717515946133E+02
0.244706775010358E+02
0.241724513185882E+02
0.238800318499513E+02
0.235963081070011E+02
0.233240725275062E+02
0.230659957189267E+02
0.228246028958103E+02
0.226022521427814E+02
0.224011146031944E+02
0.222231566648691E+02
0.220701241894527E+02
0.219435288111584E+02
0.218446363140377E+02
0.217744570844842E+02
0.217337386271289E+02
0.217229601272968E+02
0.250745490104858E+02
0.247771742838020E+02
0.244826261121036E+02
0.241938264072664E+02
0.239136276603156E+02
0.236447865339212E+02
0.233899389812137E+02
0.231515770528054E+02
0.229320275192019E+02
0.227334324037577E+02
0.225577314926767E+02
0.224066468637929E+02
0.222816694552997E+02
0.221840476793433E+02
0.221147780733941E+02
0.220745979743283E+02
0.220639801958065E+02
0.253809199252033E+02
0.250872729251965E+02
0.247964308786228E+02
0.245112785271224E+02
0.242346315672621E+02
0.239692106214331E+02
0.237176167341735E+02
0.234823085511670E+02
0.232655813032742E+02
0.230695476858192E+02
0.228961206946998E+02
0.227469984562369E+02
0.226236510673410E+02
0.225273094466637E+02
0.224589561858574E+02
0.224193183826423E+02
0.224088624336864E+02
0.222847131614384E+02
0.219526732168440E+02
0.216236568342436E+02
0.213009317425608E+02
0.209876928969678E+02
0.206870325394492E+02
0.204019117887904E+02
0.201351339656665E+02
0.198893198258216E+02
0.196668848434058E+02
0.194700186579913E+02
0.193006667730443E+02
0.191605145709544E+02
0.190509736902341E+02
0.189731707941745E+02
0.189279387469305E+02
0.189158102024600E+02
0.222994667491824E+02
0.219676136125214E+02
0.216387829946165E+02
0.213162407600503E+02
0.210031800170493E+02
0.207026911971433E+02
0.204177336642564E+02
0.201511090586691E+02
0.199054365485873E+02
0.196831301311287E+02
0.194863780959902E+02
0.193171247393172E+02
0.191770543926352E+02
0.190675778122310E+02
0.189898209580672E+02
0.189446161780337E+02
0.189324958028204E+02
0.223435943337798E+02
0.220122997091990E+02
0.216840244831643E+02
0.213620289463634E+02
0.210495006851782E+02
0.207495247184307E+02
0.204650551635842E+02
0.201988886371219E+02
0.199536395610894E+02
0.197317175168413E+02
0.195353067584813E+02
0.193663479727576E+02
0.192265223495500E+02
0.191172380076621E+02
0.190396188044027E+02
0.189944955442436E+02
0.189823995914292E+02
0.224166973299507E+02
0.220863272093089E+02
0.217589713184728E+02
0.214378807218326E+02
0.211262338657727E+02
0.208271068099005E+02
0.205434449877623E+02
0.202780367005859E+02
0.200334885147945E+02
0.198122027030584E+02
0.196163568400924E+02
0.194478856387093E+02
0.193084650890623E+02
0.191994989446828E+02
0.191221075827993E+02
0.190771192533767E+02
0.190650637210707E+02
0.225181146003572E+02
0.221890255308711E+02
0.218629435210863E+02
0.215431068511810E+02
0.212326813032021E+02
0.209347305231881E+02
0.206521879128131E+02
0.203878302524536E+02
0.201442532247040E+02
0.199238489763431E+02
0.197287858281898E+02
0.195609902166213E+02
0.194221309280286E+02
0.193136056682768E+02
0.192365299932800E+02
0.191917286139560E+02
0.191797290788127E+02
0.226469272218942E+02
0.223194626861426E+02
0.219949961041603E+02
0.216767495446911E+02
0.213678727308516E+02
0.210714135681981E+02
0.207902902023422E+02
0.205272648059377E+02
0.202849192618907E+02
0.200656328785621E+02
0.198715622441580E+02
0.197046233018858E+02
0.195664757050497E+02
0.194585094922068E+02
0.193818341067546E+02
0.193372697727243E+02
0.193253412288451E+02
0.228019651752423E+02
0.224764521257162E+02
0.221539260716090E+02
0.218375896083468E+02
0.215305731696470E+02
0.212359057548626E+02
0.209564871858775E+02
0.206950620908885E+02
0.204541957793151E+02
0.202362521409294E+02
0.200433736737166E+02
0.198774637194071E+02
0.197401709633418E+02
0.196328762364577E+02
0.195566816416790E+02
0.195124020147081E+02
0.195005587198540E+02
0.229818159710889E+02
0.226585615588153E+02
0.223382814318350E+02
0.220241556484022E+02
0.217192923189162E+02
0.214266985638156E+02
0.211492530009929E+02
0.208896799571857E+02
0.206505255645745E+02
0.204341358725869E+02
0.202426370763187E+02
0.200779179374717E+02
0.199416144515681E+02
0.198350967965377E+02
0.197594585825560E+02
0.197155084110747E+02
0.197037637420350E+02
0.231848352255946E+02
0.228641237590794E+02
0.225463722330510E+02
0.222347353331384E+02
0.219322960391605E+02
0.216420368424741E+02
0.213668124927587E+02
0.211093244654643E+02
0.208720973077640E+02
0.206574569895437E+02
0.204675113573557E+02
0.203041327638259E+02
0.201689429230176E+02
0.200633000238286E+02
0.199882881186011E+02
0.199447087925815E+02
0.199330751113759E+02
0.234091591935620E+02
0.230912493604778E+02
0.227762836210128E+02
0.224673887088467E+02
0.221676199200807E+02
0.218799326162893E+02
0.216071552568583E+02
0.213519641482850E+02
0.211168600645600E+02
0.209041468613536E+02
0.207159121781084E+02
0.205540102967861E+02
0.204200472041932E+02
0.203153678866522E+02
0.202410458712370E+02
0.201978750166788E+02
0.201863635490685E+02
0.236527192598434E+02
0.233378416396406E+02
0.230258909112098E+02
0.227199635578854E+02
0.224230849175870E+02
0.221381809949168E+02
0.218680518023139E+02
0.216153464141033E+02
0.213825398835480E+02
0.211719121415130E+02
0.209855289667212E+02
0.208252250923133E+02
0.206925894917821E+02
0.205889528694801E+02
0.205153773667271E+02
0.204726484839026E+02
0.204612692114687E+02
0.239132583774261E+02
0.236016132684864E+02
0.232928766548287E+02
0.229901127736142E+02
0.226963150301850E+02
0.224143781394252E+02
0.221470717958560E+02
0.218970160522202E+02
0.216666585524039E+02
0.214582537329320E+02
0.212738440786452E+02
0.211152434929800E+02
0.209840228218392E+02
0.208814975524600E+02
0.208087176949259E+02
0.207664598438157E+02
0.207552214106281E+02
0.241883494241512E+02
0.238801050043395E+02
0.235747496609310E+02
0.232753137099421E+02
0.229847569678679E+02
0.227059412392180E+02
0.224416043323559E+02
0.221943357791219E+02
0.219665543996104E+02
0.217604878217655E+02
0.215781540368142E+02
0.214213450464741E+02
0.212916126366390E+02
0.211902562949900E+02
0.211183132766329E+02
0.210765508122368E+02
0.210654604468927E+02
0.244754154291125E+02
0.241707062637440E+02
0.238688659162103E+02
0.235728894420721E+02
0.232857017454214E+02
0.230101304260496E+02
0.227488801543773E+02
0.225045087451883E+02
0.222794050669098E+02
0.220757688913601E+02
0.218955927602413E+02
0.217406459196677E+02
0.216124603530104E+02
0.215123189254030E+02
0.214412456403521E+02
0.213999979998008E+02
0.213890614533696E+02
0.247717515946133E+02
0.244706775010358E+02
0.241724513185882E+02
0.238800318499513E+02
0.235963081070011E+02
0.233240725275062E+02
0.230659957189267E+02
0.228246028958103E+02
0.226022521427814E+02
0.224011146031944E+02
0.222231566648691E+02
0.220701241894527E+02
0.219435288111584E+02
0.218446363140377E+02
0.217744570844842E+02
0.217337386271289E+02
0.217229601272968E+02
0.250745490104858E+02
0.247771742838020E+02
0.244826261121036E+02
0.241938264072664E+02
0.239136276603156E+02
0.236447865339212E+02
0.233899389812137E+02
0.231515770528054E+02
0.229320275192019E+02
0.227334324037577E+02
0.225577314926767E+02
0.224066468637929E+02
0.222816694552997E+02
0.221840476793433E+02
0.221147780733941E+02
0.220745979743283E+02
0.220639801958065E+02
0.253809199252033E+02
0.250872729251965E+02
0.247964308786228E+02
0.245112785271224E+02
0.242346315672621E+02
0.239692106214331E+02
0.237176167341735E+02
0.234823085511670E+02
0.232655813032742E+02
0.230695476858192E+02
0.228961206946998E+02
0.227469984562369E+02
0.226236510673410E+02
0.225273094466637E+02
0.224589561858574E+02
0.224193183826423E+02
0.224088624336864E+02
0.222847131614384E+02
0.219526732168440E+02
0.216236568342436E+02
0.213009317425608E+02
0.209876928969678E+02
0.206870325394492E+02
0.204019117887904E+02
0.201351339656665E+02
0.198893198258216E+02
0.196668848434058E+02
0.194700186579913E+02
0.193006667730443E+02
0.191605145709544E+02
0.190509736902341E+02
0.189731707941745E+02
0.189279387469305E+02
0.189158102024600E+02
0.222994667491824E+02
0.219676136125214E+02
0.216387829946165E+02
0.213162407600503E+02
0.210031800170493E+02
0.207026911971433E+02
0.204177336642564E+02
0.201511090586691E+02
0.199054365485873E+02
0.196831301311287E+02
0.194863780959902E+02
0.193171247393172E+02
0.191770543926352E+02
0.190675778122310E+02
0.189898209580672E+02
0.189446161780337E+02
0.189324958028204E+02
0.223435943337798E+02
0.220122997091990E+02
0.216840244831643E+02
0.213620289463634E+02
0.210495006851782E+02
0.207495247184307E+02
0.204650551635842E+02
0.201988886371219E+02
0.199536395610894E+02
0.197317175168413E+02
0.195353067584813E+02
0.193663479727576E+02
0.192265223495500E+02
0.191172380076621E+02
0.190396188044027E+02
0.189944955442436E+02
0.189823995914292E+02
0.224166973299507E+02
0.220863272093089E+02
0.217589713184728E+02
0.214378807218326E+02
0.211262338657727E+02
0.208271068099005E+02
0.205434449877623E+02
0.202780367005859E+02
0.200334885147945E+02
0.198122027030584E+02
0.196163568400924E+02
0.194478856387093E+02
0.193084650890623E+02
0.191994989446828E+02
0.191221075827993E+02
0.190771192533767E+02
0.190650637210707E+02
0.225181146003572E+02
0.221890255308711E+02
0.218629435210863E+02
0.215431068511810E+02
0.212326813032021E+02
0.209347305231881E+02
0.206521879128131E+02
0.203878302524536E+02
0.201442532247040E+02
0.199238489763431E+02
0.197287858281898E+02
0.195609902166213E+02
0.194221309280286E+02
0.193136056682768E+02
0.192365299932800E+02
0.191917286139560E+02
0.191797290788127E+02
0.226469272218942E+02
0.223194626861426E+02
0.219949961041603E+02
0.216767495446911E+02
0.213678727308516E+02
0.210714135681981E+02
0.207902902023422E+02
0.205272648059377E+02
0.202849192618907E+02
0.200656328785621E+02
0.198715622441580E+02
0.197046233018858E+02
0.195664757050497E+02
0.194585094922068E+02
0.193818341067546E+02
0.193372697727243E+02
0.193253412288451E+02
0.228019651752423E+02
0.224764521257162E+02
0.221539260716090E+02
0.218375896083468E+02
0.215305731696470E+02
0.212359057548626E+02
0.209564871858775E+02
0.206950620908885E+02
0.204541957793151E+02
0.202362521409294E+02
0.200433736737166E+02
0.198774637194071E+02
0.197401709633418E+02
0.196328762364577E+02
0.195566816416790E+02
0.195124020147081E+02
0.195005587198540E+02
0.229818159710889E+02
0.226585615588153E+02
0.223382814318350E+02
0.220241556484022E+02
0.217192923189162E+02
0.214266985638156E+02
0.211492530009929E+02
0.208896799571857E+02
0.206505255645745E+02
0.204341358725869E+02
0.202426370763187E+02
0.200779179374717E+02
0.199416144515681E+02
0.198350967965377E+02
0.197594585825560E+02
0.197155084110747E+02
0.197037637420350E+02
0.231848352255946E+02
0.228641237590794E+02
0.225463722330510E+02
0.222347353331384E+02
0.219322960391605E+02
0.216420368424741E+02
0.213668124927587E+02
0.211093244654643E+02
0.208720973077640E+02
0.206574569895437E+02
0.204675113573557E+02
0.203041327638259E+02
0.201689429230176E+02
0.200633000238286E+02
0.199882881186011E+02
0.199447087925815E+02
0.199330751113759E+02
0.234091591935620E+02
0.230912493604778E+02
0.227762836210128E+02
0.224673887088467E+02
0.221676199200807E+02
0.218799326162893E+02
0.216071552568583E+02
0.213519641482850E+02
0.211168600645600E+02
0.209041468613536E+02
0.207159121781084E+02
0.205540102967861E+02
0.204200472041932E+02
0.203153678866522E+02
0.202410458712370E+02
0.201978750166788E+02
0.201863635490685E+02
0.236527192598434E+02
0.233378416396406E+02
0.230258909112098E+02
0.227199635578854E+02
0.224230849175870E+02
0.221381809949168E+02
0.218680518023139E+02
0.216153464141033E+02
0.213825398835480E+02
0.211719121415130E+02
0.209855289667212E+02
0.208252250923133E+02
0.206925894917821E+02
0.205889528694801E+02
0.205153773667271E+02
0.204726484839026E+02
0.204612692114687E+02
0.239132583774261E+02
0.236016132684864E+02
0.232928766548287E+02
0.229901127736142E+02
0.226963150301850E+02
0.224143781394252E+02
0.221470717958560E+02
0.218970160522202E+02
0.216666585524039E+02
0.214582537329320E+02
0.212738440786452E+02
0.211152434929800E+02
0.209840228218392E+02
0.208814975524600E+02
0.208087176949259E+02
0.207664598438157E+02
0.207552214106281E+02
0.241883494241512E+02
0.238801050043395E+02
0.235747496609310E+02
0.232753137099421E+02
0.229847569678679E+02
0.227059412392180E+02
0.224416043323559E+02
0.221943357791219E+02
0.219665543996104E+02
0.217604878217655E+02
0.215781540368142E+02
0.214213450464741E+02
0.212916126366390E+02
0.211902562949900E+02
0.211183132766329E+02
0.210765508122368E+02
0.210654604468927E+02
0.244754154291125E+02
0.241707062637440E+02
0.238688659162103E+02
0.235728894420721E+02
0.232857017454214E+02
0.230101304260496E+02
0.227488801543773E+02
0.225045087451883E+02
0.222794050669098E+02
0.220757688913601E+02
0.218955927602413E+02
0.217406459196677E+02
0.216124603530104E+02
0.215123189254030E+02
0.214412456403521E+02
0.213999979998008E+02
0.213890614533696E+02
0.247717515946133E+02
0.244706775010358E+02
0.241724513185882E+02
0.238800318499513E+02
0.235963081070011E+02
0.233240725275062E+02
0.230659957189267E+02
0.228246028958103E+02
0.226022521427814E+02
0.224011146031944E+02
0.222231566648691E+02
0.220701241894527E+02
0.219435288111584E+02
0.218446363140377E+02
0.217744570844842E+02
0.217337386271289E+02
0.217229601272968E+02
0.250745490104858E+02
0.247771742838020E+02
0.244826261121036E+02
0.241938264072664E+02
0.239136276603156E+02
0.236447865339212E+02
0.233899389812137E+02
0.231515770528054E+02
0.229320275192019E+02
0.227334324037577E+02
0.225577314926767E+02
0.224066468637929E+02
0.222816694552997E+02
0.221840476793433E+02
0.221147780733941E+02
0.220745979743283E+02
0.220639801958065E+02
0.253809199252033E+02
0.250872729251965E+02
0.247964308786228E+02
0.245112785271224E+02
0.242346315672621E+02
0.239692106214331E+02
0.237176167341735E+02
0.234823085511670E+02
0.232655813032742E+02
0.230695476858192E+02
0.228961206946998E+02
0.227469984562369E+02
0.226236510673410E+02
0.225273094466637E+02
0.224589561858574E+02
0.224193183826423E+02
0.224088624336864E+02
</DataArray>
</PointData>
</Piece>
</RectilinearGrid>
</VTKFile>
