<?xml version="1.0"?>
<VTKFile type="RectilinearGrid" version="0.1" byte_order="LittleEndian">
<RectilinearGrid WholeExtent="0   63    0   63    0    3">
<Piece Extent="31   47   31   47    0    3">
<Coordinates>
<DataArray Name="x" type="Float32" format="ascii">
0.310000000000000E+01
0.320000000000000E+01
0.330000000000000E+01
0.340000000000000E+01
0.350000000000000E+01
0.360000000000000E+01
0.370000000000000E+01
0.380000000000000E+01
0.390000000000000E+01
0.400000000000000E+01
0.410000000000000E+01
0.420000000000000E+01
0.430000000000000E+01
0.440000000000000E+01
0.450000000000000E+01
0.460000000000000E+01
0.470000000000000E+01
</DataArray>
<DataArray Name="y" type="Float32" format="ascii">
0.310000000000000E+01
0.320000000000000E+01
0.330000000000000E+01
0.340000000000000E+01
0.350000000000000E+01
0.360000000000000E+01
0.370000000000000E+01
0.380000000000000E+01
0.390000000000000E+01
0.400000000000000E+01
0.410000000000000E+01
0.420000000000000E+01
0.430000000000000E+01
0.440000000000000E+01
0.450000000000000E+01
0.460000000000000E+01
0.470000000000000E+01
</DataArray>
<DataArray Name="z" type="Float32" format="ascii">
0.000000000000000E+00
0.100000000000000E+00
0.200000000000000E+00
0.300000000000000E+00
</DataArray>
</Coordinates>
<PointData Scalars="c">
<DataArray type="Float32" Name="c" format="ascii">
0.160048618041222E+02
0.160308383942338E+02
0.161050662181676E+02
0.162269924724045E+02
0.163956519259224E+02
0.166096745476819E+02
0.168672956700475E+02
0.171663685764799E+02
0.175043794086490E+02
0.178784643076895E+02
0.182854287357321E+02
0.187217689645290E+02
0.191836957638523E+02
0.196671603680621E+02
0.201678828386654E+02
0.206813829673853E+02
0.212030138721250E+02
0.160290740138555E+02
0.160550287923909E+02
0.161291927825152E+02
0.162510139008140E+02
0.164195281213487E+02
0.166333670806747E+02
0.168907682110382E+02
0.171895872910388E+02
0.175273133100420E+02
0.179010855623348E+02
0.183077129185013E+02
0.187436952621944E+02
0.192052471263000E+02
0.196883236081123E+02
0.201886486824273E+02
0.207017460579870E+02
0.212229727303804E+02
0.161015010241547E+02
0.161273906256220E+02
0.162013638725781E+02
0.163228708323584E+02
0.164909510783869E+02
0.167042412281346E+02
0.169609849861002E+02
0.172590455839389E+02
0.175959205174162E+02
0.179687584999657E+02
0.183743785843396E+02
0.188092914445778E+02
0.192697228562241E+02
0.197516394580531E+02
0.202507769174533E+02
0.207626706476268E+02
0.212826892318621E+02
0.162215153654186E+02
0.162472971927320E+02
0.163209550483496E+02
0.164419425525087E+02
0.166093052249510E+02
0.168216879122377E+02
0.170773446818810E+02
0.173741510800966E+02
0.177096186584453E+02
0.180809116953869E+02
0.184848660708416E+02
0.189180102926696E+02
0.193765887194678E+02
0.198565870689654E+02
0.203537603394975E+02
0.208636632972153E+02
0.213816836878334E+02
0.163880758663634E+02
0.164137085880139E+02
0.164869301278978E+02
0.166071990144933E+02
0.167735689830504E+02
0.169846962503335E+02
0.172388492034987E+02
0.175339204063472E+02
0.178674408359281E+02
0.182365962841066E+02
0.186382458912944E+02
0.190689428204541E+02
0.195249571246915E+02
0.200023009059984E+02
0.204967558999751E+02
0.210039036453855E+02
0.215191584022271E+02
0.165997345301300E+02
0.166251785552145E+02
0.166978479755411E+02
0.168172075190231E+02
0.169823212990259E+02
0.171918598968721E+02
0.174441097920960E+02
0.177369850517943E+02
0.180680412017269E+02
0.184344912245994E+02
0.188332236641648E+02
0.192608228548294E+02
0.197135913412883E+02
0.201875745961690E+02
0.206785881797573E+02
0.211822475084461E+02
0.216940004017413E+02
0.168546460859091E+02
0.168798640091514E+02
0.169518719343198E+02
0.170701419998103E+02
0.172337507265028E+02
0.174413858711713E+02
0.176913555485294E+02
0.179815995428904E+02
0.183097027436132E+02
0.186729106626164E+02
0.190681470262075E+02
0.194920334746665E+02
0.199409114474436E+02
0.204108663743294E+02
0.208977543276682E+02
0.213972313115197E+02
0.219047853649161E+02
0.171505801566359E+02
0.171755371664649E+02
0.172467818470268E+02
0.173637948637340E+02
0.175256670172296E+02
0.177311058341395E+02
0.179784443357493E+02
0.182656519166024E+02
0.185903472803538E+02
0.189498134058615E+02
0.193410145513134E+02
0.197606153455610E+02
0.202050020597586E+02
0.206703061938270E+02
0.211524305453812E+02
0.216470779476280E+02
0.221497828617485E+02
0.174849359862002E+02
0.175096002300692E+02
0.175799886137030E+02
0.176955913390587E+02
0.178555151807881E+02
0.180584897844666E+02
0.183028760417165E+02
0.185866764864530E+02
0.189075476742010E+02
0.192628145337773E+02
0.196494867164059E+02
0.200642770088933E+02
0.205036219208845E+02
0.209637045964339E+02
0.214404802314902E+02
0.219297041955711E+02
0.224269630524443E+02
0.178547596837765E+02
0.178791025861542E+02
0.179485512481808E+02
0.180626063004493E+02
0.182203919903979E+02
0.184206621621717E+02
0.186618082034166E+02
0.189418689164953E+02
0.192585422919239E+02
0.196091991910100E+02
0.199908989814826E+02
0.204004072116706E+02
0.208342154515946E+02
0.212885634682518E+02
0.217594639318292E+02
0.222427298638921E+02
0.227340050324600E+02
0.182567639671525E+02
0.182807604969442E+02
0.183491964208439E+02
0.184615835644778E+02
0.186170649375004E+02
0.188144203734994E+02
0.190520740194072E+02
0.193281036460134E+02
0.196402517742275E+02
0.199859386428842E+02
0.203622770817866E+02
0.207660893956724E+02
0.211939264069745E+02
0.216420888427804E+02
0.221066512788257E+02
0.225834888651573E+02
0.230683070491268E+02
0.186873504186284E+02
0.187109793041244E+02
0.187783405065205E+02
0.188889576811511E+02
0.190419936697559E+02
0.192362557832432E+02
0.194702028105862E+02
0.197419537402008E+02
0.200492982060768E+02
0.203897087041234E+02
0.207603546632392E+02
0.211581184978380E+02
0.215796138100997E+02
0.220212059463022E+02
0.224790351369145E+02
0.229490424592978E+02
0.234269988499402E+02
0.191426343019834E+02
0.191658781927333E+02
0.192321141912006E+02
0.193408782815613E+02
0.194913539813876E+02
0.196823772545435E+02
0.199124430224352E+02
0.201797132751671E+02
0.204820268130374E+02
0.208169106840981E+02
0.211815934237367E+02
0.215730202446939E+02
0.219878703668035E+02
0.224225767103402E+02
0.228733482000127E+02
0.233361949331089E+02
0.238069564503369E+02
0.196184720219049E+02
0.196413175981259E+02
0.197063897237972E+02
0.198132370738496E+02
0.199610644562825E+02
0.201487373469039E+02
0.203747878917733E+02
0.206374223943601E+02
0.209345303363168E+02
0.212636950181990E+02
0.216222059478928E+02
0.220070731472099E+02
0.224150435873049E+02
0.228426199966593E+02
0.232860823063222E+02
0.237415120008330E+02
0.242048196252007E+02
0.201104913321957E+02
0.201329293633993E+02
0.201968109235632E+02
0.203016976034005E+02
0.204468158870776E+02
0.206310613048526E+02
0.208530039213866E+02
0.211108951922786E+02
0.214026762562723E+02
0.217259877701645E+02
0.220781814360769E+02
0.224563334136931E+02
0.228572598495770E+02
0.232775347872666E+02
0.237135107405691E+02
0.241613422134799E+02
0.246170124290043E+02
0.206141244099727E+02
0.206361497654017E+02
0.206988260640068E+02
0.208017279025980E+02
0.209441036017461E+02
0.211248789765442E+02
0.213426623110813E+02
0.215957505846089E+02
0.218821370352751E+02
0.221995201890106E+02
0.225453145249756E+02
0.229166629921587E+02
0.233104516305541E+02
0.237233265804250E+02
0.241517137796997E+02
0.245918416478243E+02
0.250397670302008E+02
0.211246439043824E+02
0.211462555185743E+02
0.212077237447097E+02
0.213086361451103E+02
0.214482628175560E+02
0.216255597883492E+02
0.218391734785595E+02
0.220874463065977E+02
0.223684235310987E+02
0.226798614818905E+02
0.230192373718249E+02
0.233837609256610E+02
0.237703881003652E+02
0.241758371998000E+02
0.245966077011663E+02
0.250290021061771E+02
0.254691511027543E+02
0.160048618041222E+02
0.160308383942338E+02
0.161050662181676E+02
0.162269924724045E+02
0.163956519259224E+02
0.166096745476819E+02
0.168672956700475E+02
0.171663685764799E+02
0.175043794086490E+02
0.178784643076895E+02
0.182854287357321E+02
0.187217689645290E+02
0.191836957638523E+02
0.196671603680621E+02
0.201678828386654E+02
0.206813829673853E+02
0.212030138721250E+02
0.160290740138555E+02
0.160550287923909E+02
0.161291927825152E+02
0.162510139008140E+02
0.164195281213487E+02
0.166333670806747E+02
0.168907682110382E+02
0.171895872910388E+02
0.175273133100420E+02
0.179010855623348E+02
0.183077129185013E+02
0.187436952621944E+02
0.192052471263000E+02
0.196883236081123E+02
0.201886486824273E+02
0.207017460579870E+02
0.212229727303804E+02
0.161015010241547E+02
0.161273906256220E+02
0.162013638725781E+02
0.163228708323584E+02
0.164909510783869E+02
0.167042412281346E+02
0.169609849861002E+02
0.172590455839389E+02
0.175959205174162E+02
0.179687584999657E+02
0.183743785843396E+02
0.188092914445778E+02
0.192697228562241E+02
0.197516394580531E+02
0.202507769174533E+02
0.207626706476268E+02
0.212826892318621E+02
0.162215153654186E+02
0.162472971927320E+02
0.163209550483496E+02
0.164419425525087E+02
0.166093052249510E+02
0.168216879122377E+02
0.170773446818810E+02
0.173741510800966E+02
0.177096186584453E+02
0.180809116953869E+02
0.184848660708416E+02
0.189180102926696E+02
0.193765887194678E+02
0.198565870689654E+02
0.203537603394975E+02
0.208636632972153E+02
0.213816836878334E+02
0.163880758663634E+02
0.164137085880139E+02
0.164869301278978E+02
0.166071990144933E+02
0.167735689830504E+02
0.169846962503335E+02
0.172388492034987E+02
0.175339204063472E+02
0.178674408359281E+02
0.182365962841066E+02
0.186382458912944E+02
0.190689428204541E+02
0.195249571246915E+02
0.200023009059984E+02
0.204967558999751E+02
0.210039036453855E+02
0.215191584022271E+02
0.165997345301300E+02
0.166251785552145E+02
0.166978479755411E+02
0.168172075190231E+02
0.169823212990259E+02
0.171918598968721E+02
0.174441097920960E+02
0.177369850517943E+02
0.180680412017269E+02
0.184344912245994E+02
0.188332236641648E+02
0.192608228548294E+02
0.197135913412883E+02
0.201875745961690E+02
0.206785881797573E+02
0.211822475084461E+02
0.216940004017413E+02
0.168546460859091E+02
0.168798640091514E+02
0.169518719343198E+02
0.170701419998103E+02
0.172337507265028E+02
0.174413858711713E+02
0.176913555485294E+02
0.179815995428904E+02
0.183097027436132E+02
0.186729106626164E+02
0.190681470262075E+02
0.194920334746665E+02
0.199409114474436E+02
0.204108663743294E+02
0.208977543276682E+02
0.213972313115197E+02
0.219047853649161E+02
0.171505801566359E+02
0.171755371664649E+02
0.172467818470268E+02
0.173637948637340E+02
0.175256670172296E+02
0.177311058341395E+02
0.179784443357493E+02
0.182656519166024E+02
0.185903472803538E+02
0.189498134058615E+02
0.193410145513134E+02
0.197606153455610E+02
0.202050020597586E+02
0.206703061938270E+02
0.211524305453812E+02
0.216470779476280E+02
0.221497828617485E+02
0.174849359862002E+02
0.175096002300692E+02
0.175799886137030E+02
0.176955913390587E+02
0.178555151807881E+02
0.180584897844666E+02
0.183028760417165E+02
0.185866764864530E+02
0.189075476742010E+02
0.192628145337773E+02
0.196494867164059E+02
0.200642770088933E+02
0.205036219208845E+02
0.209637045964339E+02
0.214404802314902E+02
0.219297041955711E+02
0.224269630524443E+02
0.178547596837765E+02
0.178791025861542E+02
0.179485512481808E+02
0.180626063004493E+02
0.182203919903979E+02
0.184206621621717E+02
0.186618082034166E+02
0.189418689164953E+02
0.192585422919239E+02
0.196091991910100E+02
0.199908989814826E+02
0.204004072116706E+02
0.208342154515946E+02
0.212885634682518E+02
0.217594639318292E+02
0.222427298638921E+02
0.227340050324600E+02
0.182567639671525E+02
0.182807604969442E+02
0.183491964208439E+02
0.184615835644778E+02
0.186170649375004E+02
0.188144203734994E+02
0.190520740194072E+02
0.193281036460134E+02
0.196402517742275E+02
0.199859386428842E+02
0.203622770817866E+02
0.207660893956724E+02
0.211939264069745E+02
0.216420888427804E+02
0.221066512788257E+02
0.225834888651573E+02
0.230683070491268E+02
0.186873504186284E+02
0.187109793041244E+02
0.187783405065205E+02
0.188889576811511E+02
0.190419936697559E+02
0.192362557832432E+02
0.194702028105862E+02
0.197419537402008E+02
0.200492982060768E+02
0.203897087041234E+02
0.207603546632392E+02
0.211581184978380E+02
0.215796138100997E+02
0.220212059463022E+02
0.224790351369145E+02
0.229490424592978E+02
0.234269988499402E+02
0.191426343019834E+02
0.191658781927333E+02
0.192321141912006E+02
0.193408782815613E+02
0.194913539813876E+02
0.196823772545435E+02
0.199124430224352E+02
0.201797132751671E+02
0.204820268130374E+02
0.208169106840981E+02
0.211815934237367E+02
0.215730202446939E+02
0.219878703668035E+02
0.224225767103402E+02
0.228733482000127E+02
0.233361949331089E+02
0.238069564503369E+02
0.196184720219049E+02
0.196413175981259E+02
0.197063897237972E+02
0.198132370738496E+02
0.199610644562825E+02
0.201487373469039E+02
0.203747878917733E+02
0.206374223943601E+02
0.209345303363168E+02
0.212636950181990E+02
0.216222059478928E+02
0.220070731472099E+02
0.224150435873049E+02
0.228426199966593E+02
0.232860823063222E+02
0.237415120008330E+02
0.242048196252007E+02
0.201104913321957E+02
0.201329293633993E+02
0.201968109235632E+02
0.203016976034005E+02
0.204468158870776E+02
0.206310613048526E+02
0.208530039213866E+02
0.211108951922786E+02
0.214026762562723E+02
0.217259877701645E+02
0.220781814360769E+02
0.224563334136931E+02
0.228572598495770E+02
0.232775347872666E+02
0.237135107405691E+02
0.241613422134799E+02
0.246170124290043E+02
0.206141244099727E+02
0.206361497654017E+02
0.206988260640068E+02
0.208017279025980E+02
0.209441036017461E+02
0.211248789765442E+02
0.213426623110813E+02
0.215957505846089E+02
0.218821370352751E+02
0.221995201890106E+02
0.225453145249756E+02
0.229166629921587E+02
0.233104516305541E+02
0.237233265804250E+02
0.241517137796997E+02
0.245918416478243E+02
0.250397670302008E+02
0.211246439043824E+02
0.211462555185743E+02
0.212077237447097E+02
0.213086361451103E+02
0.214482628175560E+02
0.216255597883492E+02
0.218391734785595E+02
0.220874463065977E+02
0.223684235310987E+02
0.226798614818905E+02
0.230192373718249E+02
0.233837609256610E+02
0.237703881003652E+02
0.241758371998000E+02
0.245966077011663E+02
0.250290021061771E+02
0.254691511027543E+02
0.160048618041222E+02
0.160308383942338E+02
0.161050662181676E+02
0.162269924724045E+02
0.163956519259224E+02
0.166096745476819E+02
0.168672956700475E+02
0.171663685764799E+02
0.175043794086490E+02
0.178784643076895E+02
0.182854287357321E+02
0.187217689645290E+02
0.191836957638523E+02
0.196671603680621E+02
0.201678828386654E+02
0.206813829673853E+02
0.212030138721250E+02
0.160290740138555E+02
0.160550287923909E+02
0.161291927825152E+02
0.162510139008140E+02
0.164195281213487E+02
0.166333670806747E+02
0.168907682110382E+02
0.171895872910388E+02
0.175273133100420E+02
0.179010855623348E+02
0.183077129185013E+02
0.187436952621944E+02
0.192052471263000E+02
0.196883236081123E+02
0.201886486824273E+02
0.207017460579870E+02
0.212229727303804E+02
0.161015010241547E+02
0.161273906256220E+02
0.162013638725781E+02
0.163228708323584E+02
0.164909510783869E+02
0.167042412281346E+02
0.169609849861002E+02
0.172590455839389E+02
0.175959205174162E+02
0.179687584999657E+02
0.183743785843396E+02
0.188092914445778E+02
0.192697228562241E+02
0.197516394580531E+02
0.202507769174533E+02
0.207626706476268E+02
0.212826892318621E+02
0.162215153654186E+02
0.162472971927320E+02
0.163209550483496E+02
0.164419425525087E+02
0.166093052249510E+02
0.168216879122377E+02
0.170773446818810E+02
0.173741510800966E+02
0.177096186584453E+02
0.180809116953869E+02
0.184848660708416E+02
0.189180102926696E+02
0.193765887194678E+02
0.198565870689654E+02
0.203537603394975E+02
0.208636632972153E+02
0.213816836878334E+02
0.163880758663634E+02
0.164137085880139E+02
0.164869301278978E+02
0.166071990144933E+02
0.167735689830504E+02
0.169846962503335E+02
0.172388492034987E+02
0.175339204063472E+02
0.178674408359281E+02
0.182365962841066E+02
0.186382458912944E+02
0.190689428204541E+02
0.195249571246915E+02
0.200023009059984E+02
0.204967558999751E+02
0.210039036453855E+02
0.215191584022271E+02
0.165997345301300E+02
0.166251785552145E+02
0.166978479755411E+02
0.168172075190231E+02
0.169823212990259E+02
0.171918598968721E+02
0.174441097920960E+02
0.177369850517943E+02
0.180680412017269E+02
0.184344912245994E+02
0.188332236641648E+02
0.192608228548294E+02
0.197135913412883E+02
0.201875745961690E+02
0.206785881797573E+02
0.211822475084461E+02
0.216940004017413E+02
0.168546460859091E+02
0.168798640091514E+02
0.169518719343198E+02
0.170701419998103E+02
0.172337507265028E+02
0.174413858711713E+02
0.176913555485294E+02
0.179815995428904E+02
0.183097027436132E+02
0.186729106626164E+02
0.190681470262075E+02
0.194920334746665E+02
0.199409114474436E+02
0.204108663743294E+02
0.208977543276682E+02
0.213972313115197E+02
0.219047853649161E+02
0.171505801566359E+02
0.171755371664649E+02
0.172467818470268E+02
0.173637948637340E+02
0.175256670172296E+02
0.177311058341395E+02
0.179784443357493E+02
0.182656519166024E+02
0.185903472803538E+02
0.189498134058615E+02
0.193410145513134E+02
0.197606153455610E+02
0.202050020597586E+02
0.206703061938270E+02
0.211524305453812E+02
0.216470779476280E+02
0.221497828617485E+02
0.174849359862002E+02
0.175096002300692E+02
0.175799886137030E+02
0.176955913390587E+02
0.178555151807881E+02
0.180584897844666E+02
0.183028760417165E+02
0.185866764864530E+02
0.189075476742010E+02
0.192628145337773E+02
0.196494867164059E+02
0.200642770088933E+02
0.205036219208845E+02
0.209637045964339E+02
0.214404802314902E+02
0.219297041955711E+02
0.224269630524443E+02
0.178547596837765E+02
0.178791025861542E+02
0.179485512481808E+02
0.180626063004493E+02
0.182203919903979E+02
0.184206621621717E+02
0.186618082034166E+02
0.189418689164953E+02
0.192585422919239E+02
0.196091991910100E+02
0.199908989814826E+02
0.204004072116706E+02
0.208342154515946E+02
0.212885634682518E+02
0.217594639318292E+02
0.222427298638921E+02
0.227340050324600E+02
0.182567639671525E+02
0.182807604969442E+02
0.183491964208439E+02
0.184615835644778E+02
0.186170649375004E+02
0.188144203734994E+02
0.190520740194072E+02
0.193281036460134E+02
0.196402517742275E+02
0.199859386428842E+02
0.203622770817866E+02
0.207660893956724E+02
0.211939264069745E+02
0.216420888427804E+02
0.221066512788257E+02
0.225834888651573E+02
0.230683070491268E+02
0.186873504186284E+02
0.187109793041244E+02
0.187783405065205E+02
0.188889576811511E+02
0.190419936697559E+02
0.192362557832432E+02
0.194702028105862E+02
0.197419537402008E+02
0.200492982060768E+02
0.203897087041234E+02
0.207603546632392E+02
0.211581184978380E+02
0.215796138100997E+02
0.220212059463022E+02
0.224790351369145E+02
0.229490424592978E+02
0.234269988499402E+02
0.191426343019834E+02
0.191658781927333E+02
0.192321141912006E+02
0.193408782815613E+02
0.194913539813876E+02
0.196823772545435E+02
0.199124430224352E+02
0.201797132751671E+02
0.204820268130374E+02
0.208169106840981E+02
0.211815934237367E+02
0.215730202446939E+02
0.219878703668035E+02
0.224225767103402E+02
0.228733482000127E+02
0.233361949331089E+02
0.238069564503369E+02
0.196184720219049E+02
0.196413175981259E+02
0.197063897237972E+02
0.198132370738496E+02
0.199610644562825E+02
0.201487373469039E+02
0.203747878917733E+02
0.206374223943601E+02
0.209345303363168E+02
0.212636950181990E+02
0.216222059478928E+02
0.220070731472099E+02
0.224150435873049E+02
0.228426199966593E+02
0.232860823063222E+02
0.237415120008330E+02
0.242048196252007E+02
0.201104913321957E+02
0.201329293633993E+02
0.201968109235632E+02
0.203016976034005E+02
0.204468158870776E+02
0.206310613048526E+02
0.208530039213866E+02
0.211108951922786E+02
0.214026762562723E+02
0.217259877701645E+02
0.220781814360769E+02
0.224563334136931E+02
0.228572598495770E+02
0.232775347872666E+02
0.237135107405691E+02
0.241613422134799E+02
0.246170124290043E+02
0.206141244099727E+02
0.206361497654017E+02
0.206988260640068E+02
0.208017279025980E+02
0.209441036017461E+02
0.211248789765442E+02
0.213426623110813E+02
0.215957505846089E+02
0.218821370352751E+02
0.221995201890106E+02
0.225453145249756E+02
0.229166629921587E+02
0.233104516305541E+02
0.237233265804250E+02
0.241517137796997E+02
0.245918416478243E+02
0.250397670302008E+02
0.211246439043824E+02
0.211462555185743E+02
0.212077237447097E+02
0.213086361451103E+02
0.214482628175560E+02
0.216255597883492E+02
0.218391734785595E+02
0.220874463065977E+02
0.223684235310987E+02
0.226798614818905E+02
0.230192373718249E+02
0.233837609256610E+02
0.237703881003652E+02
0.241758371998000E+02
0.245966077011663E+02
0.250290021061771E+02
0.254691511027543E+02
0.160048618041222E+02
0.160308383942338E+02
0.161050662181676E+02
0.162269924724045E+02
0.163956519259224E+02
0.166096745476819E+02
0.168672956700475E+02
0.171663685764799E+02
0.175043794086490E+02
0.178784643076895E+02
0.182854287357321E+02
0.187217689645290E+02
0.191836957638523E+02
0.196671603680621E+02
0.201678828386654E+02
0.206813829673853E+02
0.212030138721250E+02
0.160290740138555E+02
0.160550287923909E+02
0.161291927825152E+02
0.162510139008140E+02
0.164195281213487E+02
0.166333670806747E+02
0.168907682110382E+02
0.171895872910388E+02
0.175273133100420E+02
0.179010855623348E+02
0.183077129185013E+02
0.187436952621944E+02
0.192052471263000E+02
0.196883236081123E+02
0.201886486824273E+02
0.207017460579870E+02
0.212229727303804E+02
0.161015010241547E+02
0.161273906256220E+02
0.162013638725781E+02
0.163228708323584E+02
0.164909510783869E+02
0.167042412281346E+02
0.169609849861002E+02
0.172590455839389E+02
0.175959205174162E+02
0.179687584999657E+02
0.183743785843396E+02
0.188092914445778E+02
0.192697228562241E+02
0.197516394580531E+02
0.202507769174533E+02
0.207626706476268E+02
0.212826892318621E+02
0.162215153654186E+02
0.162472971927320E+02
0.163209550483496E+02
0.164419425525087E+02
0.166093052249510E+02
0.168216879122377E+02
0.170773446818810E+02
0.173741510800966E+02
0.177096186584453E+02
0.180809116953869E+02
0.184848660708416E+02
0.189180102926696E+02
0.193765887194678E+02
0.198565870689654E+02
0.203537603394975E+02
0.208636632972153E+02
0.213816836878334E+02
0.163880758663634E+02
0.164137085880139E+02
0.164869301278978E+02
0.166071990144933E+02
0.167735689830504E+02
0.169846962503335E+02
0.172388492034987E+02
0.175339204063472E+02
0.178674408359281E+02
0.182365962841066E+02
0.186382458912944E+02
0.190689428204541E+02
0.195249571246915E+02
0.200023009059984E+02
0.204967558999751E+02
0.210039036453855E+02
0.215191584022271E+02
0.165997345301300E+02
0.166251785552145E+02
0.166978479755411E+02
0.168172075190231E+02
0.169823212990259E+02
0.171918598968721E+02
0.174441097920960E+02
0.177369850517943E+02
0.180680412017269E+02
0.184344912245994E+02
0.188332236641648E+02
0.192608228548294E+02
0.197135913412883E+02
0.201875745961690E+02
0.206785881797573E+02
0.211822475084461E+02
0.216940004017413E+02
0.168546460859091E+02
0.168798640091514E+02
0.169518719343198E+02
0.170701419998103E+02
0.172337507265028E+02
0.174413858711713E+02
0.176913555485294E+02
0.179815995428904E+02
0.183097027436132E+02
0.186729106626164E+02
0.190681470262075E+02
0.194920334746665E+02
0.199409114474436E+02
0.204108663743294E+02
0.208977543276682E+02
0.213972313115197E+02
0.219047853649161E+02
0.171505801566359E+02
0.171755371664649E+02
0.172467818470268E+02
0.173637948637340E+02
0.175256670172296E+02
0.177311058341395E+02
0.179784443357493E+02
0.182656519166024E+02
0.185903472803538E+02
0.189498134058615E+02
0.193410145513134E+02
0.197606153455610E+02
0.202050020597586E+02
0.206703061938270E+02
0.211524305453812E+02
0.216470779476280E+02
0.221497828617485E+02
0.174849359862002E+02
0.175096002300692E+02
0.175799886137030E+02
0.176955913390587E+02
0.178555151807881E+02
0.180584897844666E+02
0.183028760417165E+02
0.185866764864530E+02
0.189075476742010E+02
0.192628145337773E+02
0.196494867164059E+02
0.200642770088933E+02
0.205036219208845E+02
0.209637045964339E+02
0.214404802314902E+02
0.219297041955711E+02
0.224269630524443E+02
0.178547596837765E+02
0.178791025861542E+02
0.179485512481808E+02
0.180626063004493E+02
0.182203919903979E+02
0.184206621621717E+02
0.186618082034166E+02
0.189418689164953E+02
0.192585422919239E+02
0.196091991910100E+02
0.199908989814826E+02
0.204004072116706E+02
0.208342154515946E+02
0.212885634682518E+02
0.217594639318292E+02
0.222427298638921E+02
0.227340050324600E+02
0.182567639671525E+02
0.182807604969442E+02
0.183491964208439E+02
0.184615835644778E+02
0.186170649375004E+02
0.188144203734994E+02
0.190520740194072E+02
0.193281036460134E+02
0.196402517742275E+02
0.199859386428842E+02
0.203622770817866E+02
0.207660893956724E+02
0.211939264069745E+02
0.216420888427804E+02
0.221066512788257E+02
0.225834888651573E+02
0.230683070491268E+02
0.186873504186284E+02
0.187109793041244E+02
0.187783405065205E+02
0.188889576811511E+02
0.190419936697559E+02
0.192362557832432E+02
0.194702028105862E+02
0.197419537402008E+02
0.200492982060768E+02
0.203897087041234E+02
0.207603546632392E+02
0.211581184978380E+02
0.215796138100997E+02
0.220212059463022E+02
0.224790351369145E+02
0.229490424592978E+02
0.234269988499402E+02
0.191426343019834E+02
0.191658781927333E+02
0.192321141912006E+02
0.193408782815613E+02
0.194913539813876E+02
0.196823772545435E+02
0.199124430224352E+02
0.201797132751671E+02
0.204820268130374E+02
0.208169106840981E+02
0.211815934237367E+02
0.215730202446939E+02
0.219878703668035E+02
0.224225767103402E+02
0.228733482000127E+02
0.233361949331089E+02
0.238069564503369E+02
0.196184720219049E+02
0.196413175981259E+02
0.197063897237972E+02
0.198132370738496E+02
0.199610644562825E+02
0.201487373469039E+02
0.203747878917733E+02
0.206374223943601E+02
0.209345303363168E+02
0.212636950181990E+02
0.216222059478928E+02
0.220070731472099E+02
0.224150435873049E+02
0.228426199966593E+02
0.232860823063222E+02
0.237415120008330E+02
0.242048196252007E+02
0.201104913321957E+02
0.201329293633993E+02
0.201968109235632E+02
0.203016976034005E+02
0.204468158870776E+02
0.206310613048526E+02
0.208530039213866E+02
0.211108951922786E+02
0.214026762562723E+02
0.217259877701645E+02
0.220781814360769E+02
0.224563334136931E+02
0.228572598495770E+02
0.232775347872666E+02
0.237135107405691E+02
0.241613422134799E+02
0.246170124290043E+02
0.206141244099727E+02
0.206361497654017E+02
0.206988260640068E+02
0.208017279025980E+02
0.209441036017461E+02
0.211248789765442E+02
0.213426623110813E+02
0.215957505846089E+02
0.218821370352751E+02
0.221995201890106E+02
0.225453145249756E+02
0.229166629921587E+02
0.233104516305541E+02
0.237233265804250E+02
0.241517137796997E+02
0.245918416478243E+02
0.250397670302008E+02
0.211246439043824E+02
0.211462555185743E+02
0.212077237447097E+02
0.213086361451103E+02
0.214482628175560E+02
0.216255597883492E+02
0.218391734785595E+02
0.220874463065977E+02
0.223684235310987E+02
0.226798614818905E+02
0.230192373718249E+02
0.233837609256610E+02
0.237703881003652E+02
0.241758371998000E+02
0.245966077011663E+02
0.250290021061771E+02
0.254691511027543E+02
</DataArray>
</PointData>
</Piece>
</RectilinearGrid>
</VTKFile>
