<?xml version="1.0"?>
<VTKFile type="RectilinearGrid" version="0.1" byte_order="LittleEndian">
<RectilinearGrid WholeExtent="0   63    0   63    0    3">
<Piece Extent="0   15   47   63    0    3">
<Coordinates>
<DataArray Name="x" type="Float32" format="ascii">
0.000000000000000E+00
0.100000000000000E+00
0.200000000000000E+00
0.300000000000000E+00
0.400000000000000E+00
0.500000000000000E+00
0.600000000000000E+00
0.700000000000000E+00
0.800000000000000E+00
0.900000000000000E+00
0.100000000000000E+01
0.110000000000000E+01
0.120000000000000E+01
0.130000000000000E+01
0.140000000000000E+01
0.150000000000000E+01
</DataArray>
<DataArray Name="y" type="Float32" format="ascii">
0.470000000000000E+01
0.480000000000000E+01
0.490000000000000E+01
0.500000000000000E+01
0.510000000000000E+01
0.520000000000000E+01
0.530000000000000E+01
0.540000000000000E+01
0.550000000000000E+01
0.560000000000000E+01
0.570000000000000E+01
0.580000000000000E+01
0.590000000000000E+01
0.600000000000000E+01
0.610000000000000E+01
0.620000000000000E+01
0.630000000000000E+01
</DataArray>
<DataArray Name="z" type="Float32" format="ascii">
0.000000000000000E+00
0.100000000000000E+00
0.200000000000000E+00
0.300000000000000E+00
</DataArray>
</Coordinates>
<PointData Scalars="c">
<DataArray type="Float32" Name="c" format="ascii">
0.300658082966887E+02
0.300146255064250E+02
0.299129070080314E+02
0.297619338256911E+02
0.295635951549499E+02
0.293203509496024E+02
0.290351842738146E+02
0.287115451636048E+02
0.283532879776929E+02
0.279646043430434E+02
0.275499538131647E+02
0.271139942632785E+02
0.266615138587492E+02
0.261973661702744E+02
0.257264096938066E+02
0.252534526894319E+02
0.304621042428502E+02
0.304118035736145E+02
0.303118420745923E+02
0.301634863198751E+02
0.299686039170790E+02
0.297296261963317E+02
0.294495006949136E+02
0.291316351797506E+02
0.287798351866655E+02
0.283982371820402E+02
0.279912394672436E+02
0.275634328545334E+02
0.271195329578407E+02
0.266643156812017E+02
0.262025571738326E+02
0.257389791780919E+02
0.308592660702515E+02
0.308098353637344E+02
0.307116065485755E+02
0.305658317548935E+02
0.303743570211719E+02
0.301395850965462E+02
0.298644280723184E+02
0.295522515824738E+02
0.292068125503743E+02
0.288321925868631E+02
0.284327291615553E+02
0.280129465796575E+02
0.275774886137014E+02
0.271310543811312E+02
0.266783387466804E+02
0.262239781867549E+02
0.312533394676226E+02
0.312047584841445E+02
0.311082219470827E+02
0.309649676930755E+02
0.307768204253737E+02
0.305461546389224E+02
0.302758474108995E+02
0.299692227936119E+02
0.296299897846152E+02
0.292621759781596E+02
0.288700590203241E+02
0.284580979028646E+02
0.280308659500856E+02
0.275929870967457E+02
0.271490767447370E+02
0.267036881456305E+02
0.316402634221356E+02
0.315925041146072E+02
0.314976039087054E+02
0.313567866446469E+02
0.311718561423914E+02
0.309451592569005E+02
0.306795388371262E+02
0.303782783223699E+02
0.300450399480599E+02
0.296837986632767E+02
0.292987738822009E+02
0.288943611062774E+02
0.284750652753216E+02
0.280454374515401E+02
0.276100161318799E+02
0.271732741445496E+02
0.320159166744984E+02
0.319689435179411E+02
0.318756088144243E+02
0.317371228518296E+02
0.315552692372027E+02
0.313323680871128E+02
0.310712291613455E+02
0.307750966700089E+02
0.304475877228594E+02
0.300926265208576E+02
0.297143764112422E+02
0.293171718438612E+02
0.289054520899337E+02
0.284836983321295E+02
0.280563754279372E+02
0.276278793098149E+02
0.323761705103291E+02
0.323299408830721E+02
0.322380867330674E+02
0.321018053855720E+02
0.319228611211870E+02
0.317035485035047E+02
0.314466456902385E+02
0.311553594541416E+02
0.308332638789697E+02
0.304842348277336E+02
0.301123823030640E+02
0.297219827376347E+02
0.293174130779010E+02
0.289030882739637E+02
0.284834034830347E+02
0.280626819565778E+02
0.327169470682442E+02
0.326714116815120E+02
0.325809398735707E+02
0.324467167390142E+02
0.322704883293327E+02
0.320545251171079E+02
0.318015754835396E+02
0.315148109517361E+02
0.311977651272741E+02
0.308542684401951E+02
0.304883808063340E+02
0.301043242455246E+02
0.297064173212536E+02
0.292990130176123E+02
0.288864413655428E+02
0.284729577940260E+02
0.330342819978926E+02
0.329893853709481E+02
0.329001853786467E+02
0.327678557537248E+02
0.325941256185606E+02
0.323812430821427E+02
0.321319288990519E+02
0.318493219090181E+02
0.315369182147436E+02
0.311985061888955E+02
0.308380994259199E+02
0.304598696753369E+02
0.300680816217695E+02
0.296670311298089E+02
0.292609882693540E+02
0.288541461017079E+02
0.333243899771022E+02
0.332800709553636E+02
0.331920209698106E+02
0.330614033895117E+02
0.328899318991969E+02
0.326798342221806E+02
0.324338059419399E+02
0.321549561371604E+02
0.318467467841831E+02
0.315129280144560E+02
0.311574713402160E+02
0.307845028838422E+02
0.303982384763059E+02
0.300029222444173E+02
0.296027700053651E+02
0.292019184526247E+02
0.335837313189153E+02
0.335399236324946E+02
0.334528916746498E+02
0.333237895688709E+02
0.331543172310117E+02
0.329466842083884E+02
0.327035636512870E+02
0.324280381281779E+02
0.321235392349995E+02
0.317937830829135E+02
0.314427037752999E+02
0.310743869080161E+02
0.306930049581542E+02
0.303027561820533E+02
0.299078083432593E+02
0.295122482575417E+02
0.338090776879783E+02
0.337657105478882E+02
0.336795556552315E+02
0.335517591144757E+02
0.333840089016826E+02
0.331784988072149E+02
0.329378825409274E+02
0.326652197079590E+02
0.323639156022290E+02
0.320376568990722E+02
0.316903453554260E+02
0.313260315501246E+02
0.309488505291037E+02
0.305629609769234E+02
0.301724892369312E+02
0.297814791695573E+02
0.339975748200107E+02
0.339545735488906E+02
0.338691470302022E+02
0.337424346711661E+02
0.335761144777985E+02
0.333723670861373E+02
0.331338299816287E+02
0.328635436120399E+02
0.325648913381691E+02
0.322415353011708E+02
0.318973503127929E+02
0.315363577996774E+02
0.311626616659911E+02
0.307803876961458E+02
0.303936278211046E+02
0.300063902395757E+02
0.341468001118228E+02
0.341040868054773E+02
0.340192335564127E+02
0.338933744767098E+02
0.337281796907099E+02
0.335258194374916E+02
0.332889183821599E+02
0.330205018390834E+02
0.327239358490379E+02
0.324028631869217E+02
0.320611374045639E+02
0.317027569385659E+02
0.313318011468966E+02
0.309523698961613E+02
0.305685280238522E+02
0.301842556681973E+02
0.342548130304730E+02
0.342123072458740E+02
0.341278671167480E+02
0.340026229261736E+02
0.338382390997148E+02
0.336368783601060E+02
0.334011561058746E+02
0.331340867153941E+02
0.328390237166138E+02
0.325195958975255E+02
0.321796414605549E+02
0.318231422498798E+02
0.314541599149387E+02
0.310767756321040E+02
0.306950347093442E+02
0.303128970673859E+02
0.343201964796068E+02
0.342778159443452E+02
0.341936251502302E+02
0.340687520640628E+02
0.339048576642854E+02
0.337041001275250E+02
0.334690892483035E+02
0.332028327923978E+02
0.329086767230452E+02
0.325902413740665E+02
0.322513556722636E+02
0.318959914375044E+02
0.315281996234571E+02
0.311520501209513E+02
0.307715764490822E+02
0.303907263280800E+02
0.343420875523435E+02
0.342997488899032E+02
0.342156414519453E+02
0.340908924300151E+02
0.339271616488463E+02
0.337266057636141E+02
0.334918326934570E+02
0.332258479914094E+02
0.329319950895889E+02
0.326138914933727E+02
0.322753630266424E+02
0.319203781563062E+02
0.315529842589555E+02
0.311772474516321E+02
0.307971973119123E+02
0.304167774815002E+02
0.300658082966887E+02
0.300146255064250E+02
0.299129070080314E+02
0.297619338256911E+02
0.295635951549499E+02
0.293203509496024E+02
0.290351842738146E+02
0.287115451636048E+02
0.283532879776929E+02
0.279646043430434E+02
0.275499538131647E+02
0.271139942632785E+02
0.266615138587492E+02
0.261973661702744E+02
0.257264096938066E+02
0.252534526894319E+02
0.304621042428502E+02
0.304118035736145E+02
0.303118420745923E+02
0.301634863198751E+02
0.299686039170790E+02
0.297296261963317E+02
0.294495006949136E+02
0.291316351797506E+02
0.287798351866655E+02
0.283982371820402E+02
0.279912394672436E+02
0.275634328545334E+02
0.271195329578407E+02
0.266643156812017E+02
0.262025571738326E+02
0.257389791780919E+02
0.308592660702515E+02
0.308098353637344E+02
0.307116065485755E+02
0.305658317548935E+02
0.303743570211719E+02
0.301395850965462E+02
0.298644280723184E+02
0.295522515824738E+02
0.292068125503743E+02
0.288321925868631E+02
0.284327291615553E+02
0.280129465796575E+02
0.275774886137014E+02
0.271310543811312E+02
0.266783387466804E+02
0.262239781867549E+02
0.312533394676226E+02
0.312047584841445E+02
0.311082219470827E+02
0.309649676930755E+02
0.307768204253737E+02
0.305461546389224E+02
0.302758474108995E+02
0.299692227936119E+02
0.296299897846152E+02
0.292621759781596E+02
0.288700590203241E+02
0.284580979028646E+02
0.280308659500856E+02
0.275929870967457E+02
0.271490767447370E+02
0.267036881456305E+02
0.316402634221356E+02
0.315925041146072E+02
0.314976039087054E+02
0.313567866446469E+02
0.311718561423914E+02
0.309451592569005E+02
0.306795388371262E+02
0.303782783223699E+02
0.300450399480599E+02
0.296837986632767E+02
0.292987738822009E+02
0.288943611062774E+02
0.284750652753216E+02
0.280454374515401E+02
0.276100161318799E+02
0.271732741445496E+02
0.320159166744984E+02
0.319689435179411E+02
0.318756088144243E+02
0.317371228518296E+02
0.315552692372027E+02
0.313323680871128E+02
0.310712291613455E+02
0.307750966700089E+02
0.304475877228594E+02
0.300926265208576E+02
0.297143764112422E+02
0.293171718438612E+02
0.289054520899337E+02
0.284836983321295E+02
0.280563754279372E+02
0.276278793098149E+02
0.323761705103291E+02
0.323299408830721E+02
0.322380867330674E+02
0.321018053855720E+02
0.319228611211870E+02
0.317035485035047E+02
0.314466456902385E+02
0.311553594541416E+02
0.308332638789697E+02
0.304842348277336E+02
0.301123823030640E+02
0.297219827376347E+02
0.293174130779010E+02
0.289030882739637E+02
0.284834034830347E+02
0.280626819565778E+02
0.327169470682442E+02
0.326714116815120E+02
0.325809398735707E+02
0.324467167390142E+02
0.322704883293327E+02
0.320545251171079E+02
0.318015754835396E+02
0.315148109517361E+02
0.311977651272741E+02
0.308542684401951E+02
0.304883808063340E+02
0.301043242455246E+02
0.297064173212536E+02
0.292990130176123E+02
0.288864413655428E+02
0.284729577940260E+02
0.330342819978926E+02
0.329893853709481E+02
0.329001853786467E+02
0.327678557537248E+02
0.325941256185606E+02
0.323812430821427E+02
0.321319288990519E+02
0.318493219090181E+02
0.315369182147436E+02
0.311985061888955E+02
0.308380994259199E+02
0.304598696753369E+02
0.300680816217695E+02
0.296670311298089E+02
0.292609882693540E+02
0.288541461017079E+02
0.333243899771022E+02
0.332800709553636E+02
0.331920209698106E+02
0.330614033895117E+02
0.328899318991969E+02
0.326798342221806E+02
0.324338059419399E+02
0.321549561371604E+02
0.318467467841831E+02
0.315129280144560E+02
0.311574713402160E+02
0.307845028838422E+02
0.303982384763059E+02
0.300029222444173E+02
0.296027700053651E+02
0.292019184526247E+02
0.335837313189153E+02
0.335399236324946E+02
0.334528916746498E+02
0.333237895688709E+02
0.331543172310117E+02
0.329466842083884E+02
0.327035636512870E+02
0.324280381281779E+02
0.321235392349995E+02
0.317937830829135E+02
0.314427037752999E+02
0.310743869080161E+02
0.306930049581542E+02
0.303027561820533E+02
0.299078083432593E+02
0.295122482575417E+02
0.338090776879783E+02
0.337657105478882E+02
0.336795556552315E+02
0.335517591144757E+02
0.333840089016826E+02
0.331784988072149E+02
0.329378825409274E+02
0.326652197079590E+02
0.323639156022290E+02
0.320376568990722E+02
0.316903453554260E+02
0.313260315501246E+02
0.309488505291037E+02
0.305629609769234E+02
0.301724892369312E+02
0.297814791695573E+02
0.339975748200107E+02
0.339545735488906E+02
0.338691470302022E+02
0.337424346711661E+02
0.335761144777985E+02
0.333723670861373E+02
0.331338299816287E+02
0.328635436120399E+02
0.325648913381691E+02
0.322415353011708E+02
0.318973503127929E+02
0.315363577996774E+02
0.311626616659911E+02
0.307803876961458E+02
0.303936278211046E+02
0.300063902395757E+02
0.341468001118228E+02
0.341040868054773E+02
0.340192335564127E+02
0.338933744767098E+02
0.337281796907099E+02
0.335258194374916E+02
0.332889183821599E+02
0.330205018390834E+02
0.327239358490379E+02
0.324028631869217E+02
0.320611374045639E+02
0.317027569385659E+02
0.313318011468966E+02
0.309523698961613E+02
0.305685280238522E+02
0.301842556681973E+02
0.342548130304730E+02
0.342123072458740E+02
0.341278671167480E+02
0.340026229261736E+02
0.338382390997148E+02
0.336368783601060E+02
0.334011561058746E+02
0.331340867153941E+02
0.328390237166138E+02
0.325195958975255E+02
0.321796414605549E+02
0.318231422498798E+02
0.314541599149387E+02
0.310767756321040E+02
0.306950347093442E+02
0.303128970673859E+02
0.343201964796068E+02
0.342778159443452E+02
0.341936251502302E+02
0.340687520640628E+02
0.339048576642854E+02
0.337041001275250E+02
0.334690892483035E+02
0.332028327923978E+02
0.329086767230452E+02
0.325902413740665E+02
0.322513556722636E+02
0.318959914375044E+02
0.315281996234571E+02
0.311520501209513E+02
0.307715764490822E+02
0.303907263280800E+02
0.343420875523435E+02
0.342997488899032E+02
0.342156414519453E+02
0.340908924300151E+02
0.339271616488463E+02
0.337266057636141E+02
0.334918326934570E+02
0.332258479914094E+02
0.329319950895889E+02
0.326138914933727E+02
0.322753630266424E+02
0.319203781563062E+02
0.315529842589555E+02
0.311772474516321E+02
0.307971973119123E+02
0.304167774815002E+02
0.300658082966887E+02
0.300146255064250E+02
0.299129070080314E+02
0.297619338256911E+02
0.295635951549499E+02
0.293203509496024E+02
0.290351842738146E+02
0.287115451636048E+02
0.283532879776929E+02
0.279646043430434E+02
0.275499538131647E+02
0.271139942632785E+02
0.266615138587492E+02
0.261973661702744E+02
0.257264096938066E+02
0.252534526894319E+02
0.304621042428502E+02
0.304118035736145E+02
0.303118420745923E+02
0.301634863198751E+02
0.299686039170790E+02
0.297296261963317E+02
0.294495006949136E+02
0.291316351797506E+02
0.287798351866655E+02
0.283982371820402E+02
0.279912394672436E+02
0.275634328545334E+02
0.271195329578407E+02
0.266643156812017E+02
0.262025571738326E+02
0.257389791780919E+02
0.308592660702515E+02
0.308098353637344E+02
0.307116065485755E+02
0.305658317548935E+02
0.303743570211719E+02
0.301395850965462E+02
0.298644280723184E+02
0.295522515824738E+02
0.292068125503743E+02
0.288321925868631E+02
0.284327291615553E+02
0.280129465796575E+02
0.275774886137014E+02
0.271310543811312E+02
0.266783387466804E+02
0.262239781867549E+02
0.312533394676226E+02
0.312047584841445E+02
0.311082219470827E+02
0.309649676930755E+02
0.307768204253737E+02
0.305461546389224E+02
0.302758474108995E+02
0.299692227936119E+02
0.296299897846152E+02
0.292621759781596E+02
0.288700590203241E+02
0.284580979028646E+02
0.280308659500856E+02
0.275929870967457E+02
0.271490767447370E+02
0.267036881456305E+02
0.316402634221356E+02
0.315925041146072E+02
0.314976039087054E+02
0.313567866446469E+02
0.311718561423914E+02
0.309451592569005E+02
0.306795388371262E+02
0.303782783223699E+02
0.300450399480599E+02
0.296837986632767E+02
0.292987738822009E+02
0.288943611062774E+02
0.284750652753216E+02
0.280454374515401E+02
0.276100161318799E+02
0.271732741445496E+02
0.320159166744984E+02
0.319689435179411E+02
0.318756088144243E+02
0.317371228518296E+02
0.315552692372027E+02
0.313323680871128E+02
0.310712291613455E+02
0.307750966700089E+02
0.304475877228594E+02
0.300926265208576E+02
0.297143764112422E+02
0.293171718438612E+02
0.289054520899337E+02
0.284836983321295E+02
0.280563754279372E+02
0.276278793098149E+02
0.323761705103291E+02
0.323299408830721E+02
0.322380867330674E+02
0.321018053855720E+02
0.319228611211870E+02
0.317035485035047E+02
0.314466456902385E+02
0.311553594541416E+02
0.308332638789697E+02
0.304842348277336E+02
0.301123823030640E+02
0.297219827376347E+02
0.293174130779010E+02
0.289030882739637E+02
0.284834034830347E+02
0.280626819565778E+02
0.327169470682442E+02
0.326714116815120E+02
0.325809398735707E+02
0.324467167390142E+02
0.322704883293327E+02
0.320545251171079E+02
0.318015754835396E+02
0.315148109517361E+02
0.311977651272741E+02
0.308542684401951E+02
0.304883808063340E+02
0.301043242455246E+02
0.297064173212536E+02
0.292990130176123E+02
0.288864413655428E+02
0.284729577940260E+02
0.330342819978926E+02
0.329893853709481E+02
0.329001853786467E+02
0.327678557537248E+02
0.325941256185606E+02
0.323812430821427E+02
0.321319288990519E+02
0.318493219090181E+02
0.315369182147436E+02
0.311985061888955E+02
0.308380994259199E+02
0.304598696753369E+02
0.300680816217695E+02
0.296670311298089E+02
0.292609882693540E+02
0.288541461017079E+02
0.333243899771022E+02
0.332800709553636E+02
0.331920209698106E+02
0.330614033895117E+02
0.328899318991969E+02
0.326798342221806E+02
0.324338059419399E+02
0.321549561371604E+02
0.318467467841831E+02
0.315129280144560E+02
0.311574713402160E+02
0.307845028838422E+02
0.303982384763059E+02
0.300029222444173E+02
0.296027700053651E+02
0.292019184526247E+02
0.335837313189153E+02
0.335399236324946E+02
0.334528916746498E+02
0.333237895688709E+02
0.331543172310117E+02
0.329466842083884E+02
0.327035636512870E+02
0.324280381281779E+02
0.321235392349995E+02
0.317937830829135E+02
0.314427037752999E+02
0.310743869080161E+02
0.306930049581542E+02
0.303027561820533E+02
0.299078083432593E+02
0.295122482575417E+02
0.338090776879783E+02
0.337657105478882E+02
0.336795556552315E+02
0.335517591144757E+02
0.333840089016826E+02
0.331784988072149E+02
0.329378825409274E+02
0.326652197079590E+02
0.323639156022290E+02
0.320376568990722E+02
0.316903453554260E+02
0.313260315501246E+02
0.309488505291037E+02
0.305629609769234E+02
0.301724892369312E+02
0.297814791695573E+02
0.339975748200107E+02
0.339545735488906E+02
0.338691470302022E+02
0.337424346711661E+02
0.335761144777985E+02
0.333723670861373E+02
0.331338299816287E+02
0.328635436120399E+02
0.325648913381691E+02
0.322415353011708E+02
0.318973503127929E+02
0.315363577996774E+02
0.311626616659911E+02
0.307803876961458E+02
0.303936278211046E+02
0.300063902395757E+02
0.341468001118228E+02
0.341040868054773E+02
0.340192335564127E+02
0.338933744767098E+02
0.337281796907099E+02
0.335258194374916E+02
0.332889183821599E+02
0.330205018390834E+02
0.327239358490379E+02
0.324028631869217E+02
0.320611374045639E+02
0.317027569385659E+02
0.313318011468966E+02
0.309523698961613E+02
0.305685280238522E+02
0.301842556681973E+02
0.342548130304730E+02
0.342123072458740E+02
0.341278671167480E+02
0.340026229261736E+02
0.338382390997148E+02
0.336368783601060E+02
0.334011561058746E+02
0.331340867153941E+02
0.328390237166138E+02
0.325195958975255E+02
0.321796414605549E+02
0.318231422498798E+02
0.314541599149387E+02
0.310767756321040E+02
0.306950347093442E+02
0.303128970673859E+02
0.343201964796068E+02
0.342778159443452E+02
0.341936251502302E+02
0.340687520640628E+02
0.339048576642854E+02
0.337041001275250E+02
0.334690892483035E+02
0.332028327923978E+02
0.329086767230452E+02
0.325902413740665E+02
0.322513556722636E+02
0.318959914375044E+02
0.315281996234571E+02
0.311520501209513E+02
0.307715764490822E+02
0.303907263280800E+02
0.343420875523435E+02
0.342997488899032E+02
0.342156414519453E+02
0.340908924300151E+02
0.339271616488463E+02
0.337266057636141E+02
0.334918326934570E+02
0.332258479914094E+02
0.329319950895889E+02
0.326138914933727E+02
0.322753630266424E+02
0.319203781563062E+02
0.315529842589555E+02
0.311772474516321E+02
0.307971973119123E+02
0.304167774815002E+02
0.300658082966887E+02
0.300146255064250E+02
0.299129070080314E+02
0.297619338256911E+02
0.295635951549499E+02
0.293203509496024E+02
0.290351842738146E+02
0.287115451636048E+02
0.283532879776929E+02
0.279646043430434E+02
0.275499538131647E+02
0.271139942632785E+02
0.266615138587492E+02
0.261973661702744E+02
0.257264096938066E+02
0.252534526894319E+02
0.304621042428502E+02
0.304118035736145E+02
0.303118420745923E+02
0.301634863198751E+02
0.299686039170790E+02
0.297296261963317E+02
0.294495006949136E+02
0.291316351797506E+02
0.287798351866655E+02
0.283982371820402E+02
0.279912394672436E+02
0.275634328545334E+02
0.271195329578407E+02
0.266643156812017E+02
0.262025571738326E+02
0.257389791780919E+02
0.308592660702515E+02
0.308098353637344E+02
0.307116065485755E+02
0.305658317548935E+02
0.303743570211719E+02
0.301395850965462E+02
0.298644280723184E+02
0.295522515824738E+02
0.292068125503743E+02
0.288321925868631E+02
0.284327291615553E+02
0.280129465796575E+02
0.275774886137014E+02
0.271310543811312E+02
0.266783387466804E+02
0.262239781867549E+02
0.312533394676226E+02
0.312047584841445E+02
0.311082219470827E+02
0.309649676930755E+02
0.307768204253737E+02
0.305461546389224E+02
0.302758474108995E+02
0.299692227936119E+02
0.296299897846152E+02
0.292621759781596E+02
0.288700590203241E+02
0.284580979028646E+02
0.280308659500856E+02
0.275929870967457E+02
0.271490767447370E+02
0.267036881456305E+02
0.316402634221356E+02
0.315925041146072E+02
0.314976039087054E+02
0.313567866446469E+02
0.311718561423914E+02
0.309451592569005E+02
0.306795388371262E+02
0.303782783223699E+02
0.300450399480599E+02
0.296837986632767E+02
0.292987738822009E+02
0.288943611062774E+02
0.284750652753216E+02
0.280454374515401E+02
0.276100161318799E+02
0.271732741445496E+02
0.320159166744984E+02
0.319689435179411E+02
0.318756088144243E+02
0.317371228518296E+02
0.315552692372027E+02
0.313323680871128E+02
0.310712291613455E+02
0.307750966700089E+02
0.304475877228594E+02
0.300926265208576E+02
0.297143764112422E+02
0.293171718438612E+02
0.289054520899337E+02
0.284836983321295E+02
0.280563754279372E+02
0.276278793098149E+02
0.323761705103291E+02
0.323299408830721E+02
0.322380867330674E+02
0.321018053855720E+02
0.319228611211870E+02
0.317035485035047E+02
0.314466456902385E+02
0.311553594541416E+02
0.308332638789697E+02
0.304842348277336E+02
0.301123823030640E+02
0.297219827376347E+02
0.293174130779010E+02
0.289030882739637E+02
0.284834034830347E+02
0.280626819565778E+02
0.327169470682442E+02
0.326714116815120E+02
0.325809398735707E+02
0.324467167390142E+02
0.322704883293327E+02
0.320545251171079E+02
0.318015754835396E+02
0.315148109517361E+02
0.311977651272741E+02
0.308542684401951E+02
0.304883808063340E+02
0.301043242455246E+02
0.297064173212536E+02
0.292990130176123E+02
0.288864413655428E+02
0.284729577940260E+02
0.330342819978926E+02
0.329893853709481E+02
0.329001853786467E+02
0.327678557537248E+02
0.325941256185606E+02
0.323812430821427E+02
0.321319288990519E+02
0.318493219090181E+02
0.315369182147436E+02
0.311985061888955E+02
0.308380994259199E+02
0.304598696753369E+02
0.300680816217695E+02
0.296670311298089E+02
0.292609882693540E+02
0.288541461017079E+02
0.333243899771022E+02
0.332800709553636E+02
0.331920209698106E+02
0.330614033895117E+02
0.328899318991969E+02
0.326798342221806E+02
0.324338059419399E+02
0.321549561371604E+02
0.318467467841831E+02
0.315129280144560E+02
0.311574713402160E+02
0.307845028838422E+02
0.303982384763059E+02
0.300029222444173E+02
0.296027700053651E+02
0.292019184526247E+02
0.335837313189153E+02
0.335399236324946E+02
0.334528916746498E+02
0.333237895688709E+02
0.331543172310117E+02
0.329466842083884E+02
0.327035636512870E+02
0.324280381281779E+02
0.321235392349995E+02
0.317937830829135E+02
0.314427037752999E+02
0.310743869080161E+02
0.306930049581542E+02
0.303027561820533E+02
0.299078083432593E+02
0.295122482575417E+02
0.338090776879783E+02
0.337657105478882E+02
0.336795556552315E+02
0.335517591144757E+02
0.333840089016826E+02
0.331784988072149E+02
0.329378825409274E+02
0.326652197079590E+02
0.323639156022290E+02
0.320376568990722E+02
0.316903453554260E+02
0.313260315501246E+02
0.309488505291037E+02
0.305629609769234E+02
0.301724892369312E+02
0.297814791695573E+02
0.339975748200107E+02
0.339545735488906E+02
0.338691470302022E+02
0.337424346711661E+02
0.335761144777985E+02
0.333723670861373E+02
0.331338299816287E+02
0.328635436120399E+02
0.325648913381691E+02
0.322415353011708E+02
0.318973503127929E+02
0.315363577996774E+02
0.311626616659911E+02
0.307803876961458E+02
0.303936278211046E+02
0.300063902395757E+02
0.341468001118228E+02
0.341040868054773E+02
0.340192335564127E+02
0.338933744767098E+02
0.337281796907099E+02
0.335258194374916E+02
0.332889183821599E+02
0.330205018390834E+02
0.327239358490379E+02
0.324028631869217E+02
0.320611374045639E+02
0.317027569385659E+02
0.313318011468966E+02
0.309523698961613E+02
0.305685280238522E+02
0.301842556681973E+02
0.342548130304730E+02
0.342123072458740E+02
0.341278671167480E+02
0.340026229261736E+02
0.338382390997148E+02
0.336368783601060E+02
0.334011561058746E+02
0.331340867153941E+02
0.328390237166138E+02
0.325195958975255E+02
0.321796414605549E+02
0.318231422498798E+02
0.314541599149387E+02
0.310767756321040E+02
0.306950347093442E+02
0.303128970673859E+02
0.343201964796068E+02
0.342778159443452E+02
0.341936251502302E+02
0.340687520640628E+02
0.339048576642854E+02
0.337041001275250E+02
0.334690892483035E+02
0.332028327923978E+02
0.329086767230452E+02
0.325902413740665E+02
0.322513556722636E+02
0.318959914375044E+02
0.315281996234571E+02
0.311520501209513E+02
0.307715764490822E+02
0.303907263280800E+02
0.343420875523435E+02
0.342997488899032E+02
0.342156414519453E+02
0.340908924300151E+02
0.339271616488463E+02
0.337266057636141E+02
0.334918326934570E+02
0.332258479914094E+02
0.329319950895889E+02
0.326138914933727E+02
0.322753630266424E+02
0.319203781563062E+02
0.315529842589555E+02
0.311772474516321E+02
0.307971973119123E+02
0.304167774815002E+02
</DataArray>
</PointData>
</Piece>
</RectilinearGrid>
</VTKFile>
