<?xml version="1.0"?>
<VTKFile type="RectilinearGrid" version="0.1" byte_order="LittleEndian">
<RectilinearGrid WholeExtent="0   63    0   63    0    3">
<Piece Extent="15   31   47   63    0    3">
<Coordinates>
<DataArray Name="x" type="Float32" format="ascii">
0.150000000000000E+01
0.160000000000000E+01
0.170000000000000E+01
0.180000000000000E+01
0.190000000000000E+01
0.200000000000000E+01
0.210000000000000E+01
0.220000000000000E+01
0.230000000000000E+01
0.240000000000000E+01
0.250000000000000E+01
0.260000000000000E+01
0.270000000000000E+01
0.280000000000000E+01
0.290000000000000E+01
0.300000000000000E+01
0.310000000000000E+01
</DataArray>
<DataArray Name="y" type="Float32" format="ascii">
0.470000000000000E+01
0.480000000000000E+01
0.490000000000000E+01
0.500000000000000E+01
0.510000000000000E+01
0.520000000000000E+01
0.530000000000000E+01
0.540000000000000E+01
0.550000000000000E+01
0.560000000000000E+01
0.570000000000000E+01
0.580000000000000E+01
0.590000000000000E+01
0.600000000000000E+01
0.610000000000000E+01
0.620000000000000E+01
0.630000000000000E+01
</DataArray>
<DataArray Name="z" type="Float32" format="ascii">
0.000000000000000E+00
0.100000000000000E+00
0.200000000000000E+00
0.300000000000000E+00
</DataArray>
</Coordinates>
<PointData Scalars="c">
<DataArray type="Float32" Name="c" format="ascii">
0.251446949806106E+02
0.246184584157800E+02
0.241022201438232E+02
0.236006670365462E+02
0.231182005070910E+02
0.226589240168462E+02
0.222266352093578E+02
0.218248210479792E+02
0.214566545818155E+02
0.211249922851240E+02
0.208323712698684E+02
0.205810060225155E+02
0.203727846319213E+02
0.202092647296299E+02
0.200916695396349E+02
0.200208845230580E+02
0.199974551045011E+02
0.256871722751198E+02
0.251728143447689E+02
0.246684885648101E+02
0.241787639924110E+02
0.237079209379746E+02
0.232599396065453E+02
0.228384936095760E+02
0.224469467178199E+02
0.220883514562605E+02
0.217654484446902E+02
0.214806657253660E+02
0.212361176564119E+02
0.210336032550993E+02
0.208746041241620E+02
0.207602822701035E+02
0.206914782166993E+02
0.206687098295935E+02
0.262312032876756E+02
0.257284783176290E+02
0.252358098730732E+02
0.247576519005707E+02
0.242981667284059E+02
0.238612148019675E+02
0.234503495131290E+02
0.230688154891797E+02
0.227195489204482E+02
0.224051787916655E+02
0.221280282042422E+02
0.218901153006000E+02
0.216931535974891E+02
0.215385517791228E+02
0.214274131768066E+02
0.213605352614229E+02
0.213384094984750E+02
0.267715065001040E+02
0.262800682496017E+02
0.257987017576198E+02
0.253317495454170E+02
0.248832600636197E+02
0.244569784724199E+02
0.240563427187306E+02
0.236844832714267E+02
0.233442250740294E+02
0.230380905445061E+02
0.227683027594088E+02
0.225367882712128E+02
0.223451792945087E+02
0.221948152358285E+02
0.220867437177456E+02
0.220217213525858E+02
0.220002145542556E+02
0.273026203337349E+02
0.268220280224018E+02
0.263515142065839E+02
0.258953145797504E+02
0.254573687210592E+02
0.250413118637473E+02
0.246504721424018E+02
0.242878716766012E+02
0.239562300325403E+02
0.236579688602350E+02
0.233952167980547E+02
0.231698140366175E+02
0.229833162125959E+02
0.228369975376976E+02
0.227318532439281E+02
0.226686015355043E+02
0.226476852799430E+02
0.278189554197639E+02
0.273486799109240E+02
0.268884820480184E+02
0.264424961369341E+02
0.260145587123846E+02
0.256082012315347E+02
0.252266484075617E+02
0.248728205377588E+02
0.245493383520877E+02
0.242585291510336E+02
0.240024332835647E+02
0.237828103059449E+02
0.236011444331127E+02
0.234586491250166E+02
0.233562708260955E+02
0.232946919894715E+02
0.232743335676930E+02
0.283148590047604E+02
0.278542890783161E+02
0.274037894850963E+02
0.269673993572694E+02
0.265488587545146E+02
0.261516022146450E+02
0.257787580849614E+02
0.254331519867600E+02
0.251173129251886E+02
0.248334807878541E+02
0.245836142465295E+02
0.243693983569420E+02
0.241922514157609E+02
0.240533308609286E+02
0.239535381772041E+02
0.238935228858320E+02
0.238736857547763E+02
0.287846912091875E+02
0.283331398974610E+02
0.278916464261593E+02
0.274641616731863E+02
0.270543364596651E+02
0.266655158850053E+02
0.263007395641859E+02
0.259627461181290E+02
0.256539804175535E+02
0.253766023014497E+02
0.251324957524653E+02
0.249232777838051E+02
0.247503065502988E+02
0.246146884200333E+02
0.245172839185795E+02
0.244587125781098E+02
0.244393567876503E+02
0.292229120270071E+02
0.287796230193407E+02
0.283463755646443E+02
0.279270398446184E+02
0.275251852733983E+02
0.271440755410436E+02
0.267866696626329E+02
0.264556273828297E+02
0.261533174262976E+02
0.258818272958971E+02
0.256429735731150E+02
0.254383119401665E+02
0.252691463958843E+02
0.251365373583470E+02
0.250413085227201E+02
0.249840524658530E+02
0.249651350587184E+02
0.296241770962146E+02
0.291883312407908E+02
0.287625082860980E+02
0.283505058482235E+02
0.279558202921695E+02
0.275816424050220E+02
0.272308591613822E+02
0.269060599303698E+02
0.266095456062191E+02
0.263433393480688E+02
0.261091978595822E+02
0.259086223976501E+02
0.257428689474365E+02
0.256129572193204E+02
0.255196782986885E+02
0.254636009049989E+02
0.254450762909016E+02
0.299834394510973E+02
0.295541613944647E+02
0.291348866390012E+02
0.287293488727604E+02
0.283409802297048E+02
0.279729075117137E+02
0.276279545742236E+02
0.273086492245965E+02
0.270172331083902E+02
0.267556732554918E+02
0.265256741967280E+02
0.263286898147467E+02
0.261659343369777E+02
0.260383920945925E+02
0.259468258466595E+02
0.258917835961734E+02
0.258736039030735E+02
0.302960537577068E+02
0.298724187640570E+02
0.294587678756905E+02
0.290587799317540E+02
0.286758320496343E+02
0.283129963133936E+02
0.279730426833454E+02
0.276584464758952E+02
0.273713988833351E+02
0.271138191944144E+02
0.268873676098368E+02
0.266934577954877E+02
0.265332685568677E+02
0.264077542324944E+02
0.263176535791862E+02
0.262634970512869E+02
0.262456124576838E+02
0.305578790014057E+02
0.301389199858936E+02
0.297299275182163E+02
0.293345350435027E+02
0.289560742111016E+02
0.285975719458811E+02
0.282617537856546E+02
0.279510518340349E+02
0.276676157941384E+02
0.274133257351380E+02
0.271898054726944E+02
0.269984356892900E+02
0.268403661584640E+02
0.267165266497421E+02
0.266276362661058E+02
0.265742110963002E+02
0.265565701487791E+02
0.307653752959704E+02
0.303500900912953E+02
0.299447565897334E+02
0.295529726065804E+02
0.291780341444589E+02
0.288229327631025E+02
0.284903592489191E+02
0.281827119338703E+02
0.279021081259173E+02
0.276503972963565E+02
0.274291748950967E+02
0.272397959071101E+02
0.270833874991827E+02
0.269608603177390E+02
0.268729181734705E+02
0.268200659799594E+02
0.268026159000468E+02
0.309156904575833E+02
0.305030493132299E+02
0.301003486161916E+02
0.297111605580525E+02
0.293387555280281E+02
0.289860996962991E+02
0.286558589204234E+02
0.283504073245876E+02
0.280718390117629E+02
0.278219815494245E+02
0.276024100928867E+02
0.274144612504907E+02
0.272592460293021E+02
0.271376614108082E+02
0.270504002809892E+02
0.269979595713054E+02
0.269806465551453E+02
0.310067322526489E+02
0.305956855445327E+02
0.301945722648140E+02
0.298069491611342E+02
0.294360711940647E+02
0.290848892486992E+02
0.287560541830037E+02
0.284519255628413E+02
0.281745835424575E+02
0.279258425283310E+02
0.277072654862935E+02
0.275201779908165E+02
0.273656813489043E+02
0.272446643413779E+02
0.271578132991729E+02
0.271056203648618E+02
0.270883898784731E+02
0.310372227797844E+02
0.306267088874794E+02
0.302261260392433E+02
0.298390258230983E+02
0.294686580466317E+02
0.291179684913625E+02
0.287896030083738E+02
0.284859163051845E+02
0.282089838822261E+02
0.279606157559185E+02
0.277423708268720E+02
0.275555709903475E+02
0.274013143193491E+02
0.272804868609108E+02
0.271937727609610E+02
0.271416625658734E+02
0.271244596379620E+02
0.251446949806106E+02
0.246184584157800E+02
0.241022201438232E+02
0.236006670365462E+02
0.231182005070910E+02
0.226589240168462E+02
0.222266352093578E+02
0.218248210479792E+02
0.214566545818155E+02
0.211249922851240E+02
0.208323712698684E+02
0.205810060225155E+02
0.203727846319213E+02
0.202092647296299E+02
0.200916695396349E+02
0.200208845230580E+02
0.199974551045011E+02
0.256871722751198E+02
0.251728143447689E+02
0.246684885648101E+02
0.241787639924110E+02
0.237079209379746E+02
0.232599396065453E+02
0.228384936095760E+02
0.224469467178199E+02
0.220883514562605E+02
0.217654484446902E+02
0.214806657253660E+02
0.212361176564119E+02
0.210336032550993E+02
0.208746041241620E+02
0.207602822701035E+02
0.206914782166993E+02
0.206687098295935E+02
0.262312032876756E+02
0.257284783176290E+02
0.252358098730732E+02
0.247576519005707E+02
0.242981667284059E+02
0.238612148019675E+02
0.234503495131290E+02
0.230688154891797E+02
0.227195489204482E+02
0.224051787916655E+02
0.221280282042422E+02
0.218901153006000E+02
0.216931535974891E+02
0.215385517791228E+02
0.214274131768066E+02
0.213605352614229E+02
0.213384094984750E+02
0.267715065001040E+02
0.262800682496017E+02
0.257987017576198E+02
0.253317495454170E+02
0.248832600636197E+02
0.244569784724199E+02
0.240563427187306E+02
0.236844832714267E+02
0.233442250740294E+02
0.230380905445061E+02
0.227683027594088E+02
0.225367882712128E+02
0.223451792945087E+02
0.221948152358285E+02
0.220867437177456E+02
0.220217213525858E+02
0.220002145542556E+02
0.273026203337349E+02
0.268220280224018E+02
0.263515142065839E+02
0.258953145797504E+02
0.254573687210592E+02
0.250413118637473E+02
0.246504721424018E+02
0.242878716766012E+02
0.239562300325403E+02
0.236579688602350E+02
0.233952167980547E+02
0.231698140366175E+02
0.229833162125959E+02
0.228369975376976E+02
0.227318532439281E+02
0.226686015355043E+02
0.226476852799430E+02
0.278189554197639E+02
0.273486799109240E+02
0.268884820480184E+02
0.264424961369341E+02
0.260145587123846E+02
0.256082012315347E+02
0.252266484075617E+02
0.248728205377588E+02
0.245493383520877E+02
0.242585291510336E+02
0.240024332835647E+02
0.237828103059449E+02
0.236011444331127E+02
0.234586491250166E+02
0.233562708260955E+02
0.232946919894715E+02
0.232743335676930E+02
0.283148590047604E+02
0.278542890783161E+02
0.274037894850963E+02
0.269673993572694E+02
0.265488587545146E+02
0.261516022146450E+02
0.257787580849614E+02
0.254331519867600E+02
0.251173129251886E+02
0.248334807878541E+02
0.245836142465295E+02
0.243693983569420E+02
0.241922514157609E+02
0.240533308609286E+02
0.239535381772041E+02
0.238935228858320E+02
0.238736857547763E+02
0.287846912091875E+02
0.283331398974610E+02
0.278916464261593E+02
0.274641616731863E+02
0.270543364596651E+02
0.266655158850053E+02
0.263007395641859E+02
0.259627461181290E+02
0.256539804175535E+02
0.253766023014497E+02
0.251324957524653E+02
0.249232777838051E+02
0.247503065502988E+02
0.246146884200333E+02
0.245172839185795E+02
0.244587125781098E+02
0.244393567876503E+02
0.292229120270071E+02
0.287796230193407E+02
0.283463755646443E+02
0.279270398446184E+02
0.275251852733983E+02
0.271440755410436E+02
0.267866696626329E+02
0.264556273828297E+02
0.261533174262976E+02
0.258818272958971E+02
0.256429735731150E+02
0.254383119401665E+02
0.252691463958843E+02
0.251365373583470E+02
0.250413085227201E+02
0.249840524658530E+02
0.249651350587184E+02
0.296241770962146E+02
0.291883312407908E+02
0.287625082860980E+02
0.283505058482235E+02
0.279558202921695E+02
0.275816424050220E+02
0.272308591613822E+02
0.269060599303698E+02
0.266095456062191E+02
0.263433393480688E+02
0.261091978595822E+02
0.259086223976501E+02
0.257428689474365E+02
0.256129572193204E+02
0.255196782986885E+02
0.254636009049989E+02
0.254450762909016E+02
0.299834394510973E+02
0.295541613944647E+02
0.291348866390012E+02
0.287293488727604E+02
0.283409802297048E+02
0.279729075117137E+02
0.276279545742236E+02
0.273086492245965E+02
0.270172331083902E+02
0.267556732554918E+02
0.265256741967280E+02
0.263286898147467E+02
0.261659343369777E+02
0.260383920945925E+02
0.259468258466595E+02
0.258917835961734E+02
0.258736039030735E+02
0.302960537577068E+02
0.298724187640570E+02
0.294587678756905E+02
0.290587799317540E+02
0.286758320496343E+02
0.283129963133936E+02
0.279730426833454E+02
0.276584464758952E+02
0.273713988833351E+02
0.271138191944144E+02
0.268873676098368E+02
0.266934577954877E+02
0.265332685568677E+02
0.264077542324944E+02
0.263176535791862E+02
0.262634970512869E+02
0.262456124576838E+02
0.305578790014057E+02
0.301389199858936E+02
0.297299275182163E+02
0.293345350435027E+02
0.289560742111016E+02
0.285975719458811E+02
0.282617537856546E+02
0.279510518340349E+02
0.276676157941384E+02
0.274133257351380E+02
0.271898054726944E+02
0.269984356892900E+02
0.268403661584640E+02
0.267165266497421E+02
0.266276362661058E+02
0.265742110963002E+02
0.265565701487791E+02
0.307653752959704E+02
0.303500900912953E+02
0.299447565897334E+02
0.295529726065804E+02
0.291780341444589E+02
0.288229327631025E+02
0.284903592489191E+02
0.281827119338703E+02
0.279021081259173E+02
0.276503972963565E+02
0.274291748950967E+02
0.272397959071101E+02
0.270833874991827E+02
0.269608603177390E+02
0.268729181734705E+02
0.268200659799594E+02
0.268026159000468E+02
0.309156904575833E+02
0.305030493132299E+02
0.301003486161916E+02
0.297111605580525E+02
0.293387555280281E+02
0.289860996962991E+02
0.286558589204234E+02
0.283504073245876E+02
0.280718390117629E+02
0.278219815494245E+02
0.276024100928867E+02
0.274144612504907E+02
0.272592460293021E+02
0.271376614108082E+02
0.270504002809892E+02
0.269979595713054E+02
0.269806465551453E+02
0.310067322526489E+02
0.305956855445327E+02
0.301945722648140E+02
0.298069491611342E+02
0.294360711940647E+02
0.290848892486992E+02
0.287560541830037E+02
0.284519255628413E+02
0.281745835424575E+02
0.279258425283310E+02
0.277072654862935E+02
0.275201779908165E+02
0.273656813489043E+02
0.272446643413779E+02
0.271578132991729E+02
0.271056203648618E+02
0.270883898784731E+02
0.310372227797844E+02
0.306267088874794E+02
0.302261260392433E+02
0.298390258230983E+02
0.294686580466317E+02
0.291179684913625E+02
0.287896030083738E+02
0.284859163051845E+02
0.282089838822261E+02
0.279606157559185E+02
0.277423708268720E+02
0.275555709903475E+02
0.274013143193491E+02
0.272804868609108E+02
0.271937727609610E+02
0.271416625658734E+02
0.271244596379620E+02
0.251446949806106E+02
0.246184584157800E+02
0.241022201438232E+02
0.236006670365462E+02
0.231182005070910E+02
0.226589240168462E+02
0.222266352093578E+02
0.218248210479792E+02
0.214566545818155E+02
0.211249922851240E+02
0.208323712698684E+02
0.205810060225155E+02
0.203727846319213E+02
0.202092647296299E+02
0.200916695396349E+02
0.200208845230580E+02
0.199974551045011E+02
0.256871722751198E+02
0.251728143447689E+02
0.246684885648101E+02
0.241787639924110E+02
0.237079209379746E+02
0.232599396065453E+02
0.228384936095760E+02
0.224469467178199E+02
0.220883514562605E+02
0.217654484446902E+02
0.214806657253660E+02
0.212361176564119E+02
0.210336032550993E+02
0.208746041241620E+02
0.207602822701035E+02
0.206914782166993E+02
0.206687098295935E+02
0.262312032876756E+02
0.257284783176290E+02
0.252358098730732E+02
0.247576519005707E+02
0.242981667284059E+02
0.238612148019675E+02
0.234503495131290E+02
0.230688154891797E+02
0.227195489204482E+02
0.224051787916655E+02
0.221280282042422E+02
0.218901153006000E+02
0.216931535974891E+02
0.215385517791228E+02
0.214274131768066E+02
0.213605352614229E+02
0.213384094984750E+02
0.267715065001040E+02
0.262800682496017E+02
0.257987017576198E+02
0.253317495454170E+02
0.248832600636197E+02
0.244569784724199E+02
0.240563427187306E+02
0.236844832714267E+02
0.233442250740294E+02
0.230380905445061E+02
0.227683027594088E+02
0.225367882712128E+02
0.223451792945087E+02
0.221948152358285E+02
0.220867437177456E+02
0.220217213525858E+02
0.220002145542556E+02
0.273026203337349E+02
0.268220280224018E+02
0.263515142065839E+02
0.258953145797504E+02
0.254573687210592E+02
0.250413118637473E+02
0.246504721424018E+02
0.242878716766012E+02
0.239562300325403E+02
0.236579688602350E+02
0.233952167980547E+02
0.231698140366175E+02
0.229833162125959E+02
0.228369975376976E+02
0.227318532439281E+02
0.226686015355043E+02
0.226476852799430E+02
0.278189554197639E+02
0.273486799109240E+02
0.268884820480184E+02
0.264424961369341E+02
0.260145587123846E+02
0.256082012315347E+02
0.252266484075617E+02
0.248728205377588E+02
0.245493383520877E+02
0.242585291510336E+02
0.240024332835647E+02
0.237828103059449E+02
0.236011444331127E+02
0.234586491250166E+02
0.233562708260955E+02
0.232946919894715E+02
0.232743335676930E+02
0.283148590047604E+02
0.278542890783161E+02
0.274037894850963E+02
0.269673993572694E+02
0.265488587545146E+02
0.261516022146450E+02
0.257787580849614E+02
0.254331519867600E+02
0.251173129251886E+02
0.248334807878541E+02
0.245836142465295E+02
0.243693983569420E+02
0.241922514157609E+02
0.240533308609286E+02
0.239535381772041E+02
0.238935228858320E+02
0.238736857547763E+02
0.287846912091875E+02
0.283331398974610E+02
0.278916464261593E+02
0.274641616731863E+02
0.270543364596651E+02
0.266655158850053E+02
0.263007395641859E+02
0.259627461181290E+02
0.256539804175535E+02
0.253766023014497E+02
0.251324957524653E+02
0.249232777838051E+02
0.247503065502988E+02
0.246146884200333E+02
0.245172839185795E+02
0.244587125781098E+02
0.244393567876503E+02
0.292229120270071E+02
0.287796230193407E+02
0.283463755646443E+02
0.279270398446184E+02
0.275251852733983E+02
0.271440755410436E+02
0.267866696626329E+02
0.264556273828297E+02
0.261533174262976E+02
0.258818272958971E+02
0.256429735731150E+02
0.254383119401665E+02
0.252691463958843E+02
0.251365373583470E+02
0.250413085227201E+02
0.249840524658530E+02
0.249651350587184E+02
0.296241770962146E+02
0.291883312407908E+02
0.287625082860980E+02
0.283505058482235E+02
0.279558202921695E+02
0.275816424050220E+02
0.272308591613822E+02
0.269060599303698E+02
0.266095456062191E+02
0.263433393480688E+02
0.261091978595822E+02
0.259086223976501E+02
0.257428689474365E+02
0.256129572193204E+02
0.255196782986885E+02
0.254636009049989E+02
0.254450762909016E+02
0.299834394510973E+02
0.295541613944647E+02
0.291348866390012E+02
0.287293488727604E+02
0.283409802297048E+02
0.279729075117137E+02
0.276279545742236E+02
0.273086492245965E+02
0.270172331083902E+02
0.267556732554918E+02
0.265256741967280E+02
0.263286898147467E+02
0.261659343369777E+02
0.260383920945925E+02
0.259468258466595E+02
0.258917835961734E+02
0.258736039030735E+02
0.302960537577068E+02
0.298724187640570E+02
0.294587678756905E+02
0.290587799317540E+02
0.286758320496343E+02
0.283129963133936E+02
0.279730426833454E+02
0.276584464758952E+02
0.273713988833351E+02
0.271138191944144E+02
0.268873676098368E+02
0.266934577954877E+02
0.265332685568677E+02
0.264077542324944E+02
0.263176535791862E+02
0.262634970512869E+02
0.262456124576838E+02
0.305578790014057E+02
0.301389199858936E+02
0.297299275182163E+02
0.293345350435027E+02
0.289560742111016E+02
0.285975719458811E+02
0.282617537856546E+02
0.279510518340349E+02
0.276676157941384E+02
0.274133257351380E+02
0.271898054726944E+02
0.269984356892900E+02
0.268403661584640E+02
0.267165266497421E+02
0.266276362661058E+02
0.265742110963002E+02
0.265565701487791E+02
0.307653752959704E+02
0.303500900912953E+02
0.299447565897334E+02
0.295529726065804E+02
0.291780341444589E+02
0.288229327631025E+02
0.284903592489191E+02
0.281827119338703E+02
0.279021081259173E+02
0.276503972963565E+02
0.274291748950967E+02
0.272397959071101E+02
0.270833874991827E+02
0.269608603177390E+02
0.268729181734705E+02
0.268200659799594E+02
0.268026159000468E+02
0.309156904575833E+02
0.305030493132299E+02
0.301003486161916E+02
0.297111605580525E+02
0.293387555280281E+02
0.289860996962991E+02
0.286558589204234E+02
0.283504073245876E+02
0.280718390117629E+02
0.278219815494245E+02
0.276024100928867E+02
0.274144612504907E+02
0.272592460293021E+02
0.271376614108082E+02
0.270504002809892E+02
0.269979595713054E+02
0.269806465551453E+02
0.310067322526489E+02
0.305956855445327E+02
0.301945722648140E+02
0.298069491611342E+02
0.294360711940647E+02
0.290848892486992E+02
0.287560541830037E+02
0.284519255628413E+02
0.281745835424575E+02
0.279258425283310E+02
0.277072654862935E+02
0.275201779908165E+02
0.273656813489043E+02
0.272446643413779E+02
0.271578132991729E+02
0.271056203648618E+02
0.270883898784731E+02
0.310372227797844E+02
0.306267088874794E+02
0.302261260392433E+02
0.298390258230983E+02
0.294686580466317E+02
0.291179684913625E+02
0.287896030083738E+02
0.284859163051845E+02
0.282089838822261E+02
0.279606157559185E+02
0.277423708268720E+02
0.275555709903475E+02
0.274013143193491E+02
0.272804868609108E+02
0.271937727609610E+02
0.271416625658734E+02
0.271244596379620E+02
0.251446949806106E+02
0.246184584157800E+02
0.241022201438232E+02
0.236006670365462E+02
0.231182005070910E+02
0.226589240168462E+02
0.222266352093578E+02
0.218248210479792E+02
0.214566545818155E+02
0.211249922851240E+02
0.208323712698684E+02
0.205810060225155E+02
0.203727846319213E+02
0.202092647296299E+02
0.200916695396349E+02
0.200208845230580E+02
0.199974551045011E+02
0.256871722751198E+02
0.251728143447689E+02
0.246684885648101E+02
0.241787639924110E+02
0.237079209379746E+02
0.232599396065453E+02
0.228384936095760E+02
0.224469467178199E+02
0.220883514562605E+02
0.217654484446902E+02
0.214806657253660E+02
0.212361176564119E+02
0.210336032550993E+02
0.208746041241620E+02
0.207602822701035E+02
0.206914782166993E+02
0.206687098295935E+02
0.262312032876756E+02
0.257284783176290E+02
0.252358098730732E+02
0.247576519005707E+02
0.242981667284059E+02
0.238612148019675E+02
0.234503495131290E+02
0.230688154891797E+02
0.227195489204482E+02
0.224051787916655E+02
0.221280282042422E+02
0.218901153006000E+02
0.216931535974891E+02
0.215385517791228E+02
0.214274131768066E+02
0.213605352614229E+02
0.213384094984750E+02
0.267715065001040E+02
0.262800682496017E+02
0.257987017576198E+02
0.253317495454170E+02
0.248832600636197E+02
0.244569784724199E+02
0.240563427187306E+02
0.236844832714267E+02
0.233442250740294E+02
0.230380905445061E+02
0.227683027594088E+02
0.225367882712128E+02
0.223451792945087E+02
0.221948152358285E+02
0.220867437177456E+02
0.220217213525858E+02
0.220002145542556E+02
0.273026203337349E+02
0.268220280224018E+02
0.263515142065839E+02
0.258953145797504E+02
0.254573687210592E+02
0.250413118637473E+02
0.246504721424018E+02
0.242878716766012E+02
0.239562300325403E+02
0.236579688602350E+02
0.233952167980547E+02
0.231698140366175E+02
0.229833162125959E+02
0.228369975376976E+02
0.227318532439281E+02
0.226686015355043E+02
0.226476852799430E+02
0.278189554197639E+02
0.273486799109240E+02
0.268884820480184E+02
0.264424961369341E+02
0.260145587123846E+02
0.256082012315347E+02
0.252266484075617E+02
0.248728205377588E+02
0.245493383520877E+02
0.242585291510336E+02
0.240024332835647E+02
0.237828103059449E+02
0.236011444331127E+02
0.234586491250166E+02
0.233562708260955E+02
0.232946919894715E+02
0.232743335676930E+02
0.283148590047604E+02
0.278542890783161E+02
0.274037894850963E+02
0.269673993572694E+02
0.265488587545146E+02
0.261516022146450E+02
0.257787580849614E+02
0.254331519867600E+02
0.251173129251886E+02
0.248334807878541E+02
0.245836142465295E+02
0.243693983569420E+02
0.241922514157609E+02
0.240533308609286E+02
0.239535381772041E+02
0.238935228858320E+02
0.238736857547763E+02
0.287846912091875E+02
0.283331398974610E+02
0.278916464261593E+02
0.274641616731863E+02
0.270543364596651E+02
0.266655158850053E+02
0.263007395641859E+02
0.259627461181290E+02
0.256539804175535E+02
0.253766023014497E+02
0.251324957524653E+02
0.249232777838051E+02
0.247503065502988E+02
0.246146884200333E+02
0.245172839185795E+02
0.244587125781098E+02
0.244393567876503E+02
0.292229120270071E+02
0.287796230193407E+02
0.283463755646443E+02
0.279270398446184E+02
0.275251852733983E+02
0.271440755410436E+02
0.267866696626329E+02
0.264556273828297E+02
0.261533174262976E+02
0.258818272958971E+02
0.256429735731150E+02
0.254383119401665E+02
0.252691463958843E+02
0.251365373583470E+02
0.250413085227201E+02
0.249840524658530E+02
0.249651350587184E+02
0.296241770962146E+02
0.291883312407908E+02
0.287625082860980E+02
0.283505058482235E+02
0.279558202921695E+02
0.275816424050220E+02
0.272308591613822E+02
0.269060599303698E+02
0.266095456062191E+02
0.263433393480688E+02
0.261091978595822E+02
0.259086223976501E+02
0.257428689474365E+02
0.256129572193204E+02
0.255196782986885E+02
0.254636009049989E+02
0.254450762909016E+02
0.299834394510973E+02
0.295541613944647E+02
0.291348866390012E+02
0.287293488727604E+02
0.283409802297048E+02
0.279729075117137E+02
0.276279545742236E+02
0.273086492245965E+02
0.270172331083902E+02
0.267556732554918E+02
0.265256741967280E+02
0.263286898147467E+02
0.261659343369777E+02
0.260383920945925E+02
0.259468258466595E+02
0.258917835961734E+02
0.258736039030735E+02
0.302960537577068E+02
0.298724187640570E+02
0.294587678756905E+02
0.290587799317540E+02
0.286758320496343E+02
0.283129963133936E+02
0.279730426833454E+02
0.276584464758952E+02
0.273713988833351E+02
0.271138191944144E+02
0.268873676098368E+02
0.266934577954877E+02
0.265332685568677E+02
0.264077542324944E+02
0.263176535791862E+02
0.262634970512869E+02
0.262456124576838E+02
0.305578790014057E+02
0.301389199858936E+02
0.297299275182163E+02
0.293345350435027E+02
0.289560742111016E+02
0.285975719458811E+02
0.282617537856546E+02
0.279510518340349E+02
0.276676157941384E+02
0.274133257351380E+02
0.271898054726944E+02
0.269984356892900E+02
0.268403661584640E+02
0.267165266497421E+02
0.266276362661058E+02
0.265742110963002E+02
0.265565701487791E+02
0.307653752959704E+02
0.303500900912953E+02
0.299447565897334E+02
0.295529726065804E+02
0.291780341444589E+02
0.288229327631025E+02
0.284903592489191E+02
0.281827119338703E+02
0.279021081259173E+02
0.276503972963565E+02
0.274291748950967E+02
0.272397959071101E+02
0.270833874991827E+02
0.269608603177390E+02
0.268729181734705E+02
0.268200659799594E+02
0.268026159000468E+02
0.309156904575833E+02
0.305030493132299E+02
0.301003486161916E+02
0.297111605580525E+02
0.293387555280281E+02
0.289860996962991E+02
0.286558589204234E+02
0.283504073245876E+02
0.280718390117629E+02
0.278219815494245E+02
0.276024100928867E+02
0.274144612504907E+02
0.272592460293021E+02
0.271376614108082E+02
0.270504002809892E+02
0.269979595713054E+02
0.269806465551453E+02
0.310067322526489E+02
0.305956855445327E+02
0.301945722648140E+02
0.298069491611342E+02
0.294360711940647E+02
0.290848892486992E+02
0.287560541830037E+02
0.284519255628413E+02
0.281745835424575E+02
0.279258425283310E+02
0.277072654862935E+02
0.275201779908165E+02
0.273656813489043E+02
0.272446643413779E+02
0.271578132991729E+02
0.271056203648618E+02
0.270883898784731E+02
0.310372227797844E+02
0.306267088874794E+02
0.302261260392433E+02
0.298390258230983E+02
0.294686580466317E+02
0.291179684913625E+02
0.287896030083738E+02
0.284859163051845E+02
0.282089838822261E+02
0.279606157559185E+02
0.277423708268720E+02
0.275555709903475E+02
0.274013143193491E+02
0.272804868609108E+02
0.271937727609610E+02
0.271416625658734E+02
0.271244596379620E+02
</DataArray>
</PointData>
</Piece>
</RectilinearGrid>
</VTKFile>
