<?xml version="1.0"?>
<VTKFile type="RectilinearGrid" version="0.1" byte_order="LittleEndian">
<RectilinearGrid WholeExtent="0   63    0   63    0    3">
<Piece Extent="0   63    0   63    0    3">
<Coordinates>
<DataArray Name="x" type="Float32" format="ascii">
0.000000000000000E+00
0.100000000000000E+00
0.200000000000000E+00
0.300000000000000E+00
0.400000000000000E+00
0.500000000000000E+00
0.600000000000000E+00
0.700000000000000E+00
0.800000000000000E+00
0.900000000000000E+00
0.100000000000000E+01
0.110000000000000E+01
0.120000000000000E+01
0.130000000000000E+01
0.140000000000000E+01
0.150000000000000E+01
0.160000000000000E+01
0.170000000000000E+01
0.180000000000000E+01
0.190000000000000E+01
0.200000000000000E+01
0.210000000000000E+01
0.220000000000000E+01
0.230000000000000E+01
0.240000000000000E+01
0.250000000000000E+01
0.260000000000000E+01
0.270000000000000E+01
0.280000000000000E+01
0.290000000000000E+01
0.300000000000000E+01
0.310000000000000E+01
0.320000000000000E+01
0.330000000000000E+01
0.340000000000000E+01
0.350000000000000E+01
0.360000000000000E+01
0.370000000000000E+01
0.380000000000000E+01
0.390000000000000E+01
0.400000000000000E+01
0.410000000000000E+01
0.420000000000000E+01
0.430000000000000E+01
0.440000000000000E+01
0.450000000000000E+01
0.460000000000000E+01
0.470000000000000E+01
0.480000000000000E+01
0.490000000000000E+01
0.500000000000000E+01
0.510000000000000E+01
0.520000000000000E+01
0.530000000000000E+01
0.540000000000000E+01
0.550000000000000E+01
0.560000000000000E+01
0.570000000000000E+01
0.580000000000000E+01
0.590000000000000E+01
0.600000000000000E+01
0.610000000000000E+01
0.620000000000000E+01
0.630000000000000E+01
</DataArray>
<DataArray Name="y" type="Float32" format="ascii">
0.000000000000000E+00
0.100000000000000E+00
0.200000000000000E+00
0.300000000000000E+00
0.400000000000000E+00
0.500000000000000E+00
0.600000000000000E+00
0.700000000000000E+00
0.800000000000000E+00
0.900000000000000E+00
0.100000000000000E+01
0.110000000000000E+01
0.120000000000000E+01
0.130000000000000E+01
0.140000000000000E+01
0.150000000000000E+01
0.160000000000000E+01
0.170000000000000E+01
0.180000000000000E+01
0.190000000000000E+01
0.200000000000000E+01
0.210000000000000E+01
0.220000000000000E+01
0.230000000000000E+01
0.240000000000000E+01
0.250000000000000E+01
0.260000000000000E+01
0.270000000000000E+01
0.280000000000000E+01
0.290000000000000E+01
0.300000000000000E+01
0.310000000000000E+01
0.320000000000000E+01
0.330000000000000E+01
0.340000000000000E+01
0.350000000000000E+01
0.360000000000000E+01
0.370000000000000E+01
0.380000000000000E+01
0.390000000000000E+01
0.400000000000000E+01
0.410000000000000E+01
0.420000000000000E+01
0.430000000000000E+01
0.440000000000000E+01
0.450000000000000E+01
0.460000000000000E+01
0.470000000000000E+01
0.480000000000000E+01
0.490000000000000E+01
0.500000000000000E+01
0.510000000000000E+01
0.520000000000000E+01
0.530000000000000E+01
0.540000000000000E+01
0.550000000000000E+01
0.560000000000000E+01
0.570000000000000E+01
0.580000000000000E+01
0.590000000000000E+01
0.600000000000000E+01
0.610000000000000E+01
0.620000000000000E+01
0.630000000000000E+01
</DataArray>
<DataArray Name="z" type="Float32" format="ascii">
0.000000000000000E+00
0.100000000000000E+00
0.200000000000000E+00
0.300000000000000E+00
</DataArray>
</Coordinates>
<PointData Scalars="c">
<DataArray type="Float32" Name="c" format="ascii">
0.445385966884404E+02
0.439747632532501E+02
0.433087205357381E+02
0.426325818911617E+02
0.419669999321727E+02
0.413150710353139E+02
0.406776347106254E+02
0.400554048803315E+02
0.394491195739928E+02
0.388595445060460E+02
0.382874719664288E+02
0.377337192567561E+02
0.371991266163827E+02
0.366845545842052E+02
0.361908807460016E+02
0.357189958239892E+02
0.352697990755605E+02
0.348441929822174E+02
0.344430772277994E+02
0.340673419872031E+02
0.337178605726538E+02
0.333954815135729E+02
0.331010201771701E+02
0.328352500686153E+02
0.325988939801868E+02
0.323926151860014E+02
0.322170089005142E+02
0.320725942326597E+02
0.319598068713143E+02
0.318789927302150E+02
0.318304027608771E+02
0.318141891106317E+02
0.318304027608771E+02
0.318789927302150E+02
0.319598068713143E+02
0.320725942326597E+02
0.322170089005142E+02
0.323926151860014E+02
0.325988939801868E+02
0.328352500686153E+02
0.331010201771701E+02
0.333954815135729E+02
0.337178605726538E+02
0.340673419872031E+02
0.344430772277994E+02
0.348441929822174E+02
0.352697990755605E+02
0.357189958239892E+02
0.361908807460016E+02
0.366845545842052E+02
0.371991266163827E+02
0.377337192567561E+02
0.382874719664288E+02
0.388595445060460E+02
0.394491195739928E+02
0.400554048803315E+02
0.406776347106254E+02
0.413150710353139E+02
0.419669999321727E+02
0.426325818911617E+02
0.433087205357381E+02
0.439747632532501E+02
0.445385966884404E+02
0.447836016158721E+02
0.439747632532501E+02
0.434034256649921E+02
0.427282112413657E+02
0.420424375976375E+02
0.413670473704096E+02
0.407051863276732E+02
0.400577117567151E+02
0.394253554202733E+02
0.388088758067397E+02
0.382090619626513E+02
0.376267325544393E+02
0.370627344508667E+02
0.365179407607441E+02
0.359932482608059E+02
0.354895741515832E+02
0.350078520853385E+02
0.345490274202782E+02
0.341140516698834E+02
0.337038761356992E+02
0.333194447364791E+02
0.329616860760149E+02
0.326315048257058E+02
0.323297725348116E+02
0.320573180197577E+02
0.318149175216019E+02
0.316032848552213E+02
0.314230618019918E+02
0.312748090167918E+02
0.311589977273772E+02
0.310760024975183E+02
0.310260953036554E+02
0.310094411383263E+02
0.310260953036554E+02
0.310760024975183E+02
0.311589977273772E+02
0.312748090167918E+02
0.314230618019918E+02
0.316032848552213E+02
0.318149175216019E+02
0.320573180197577E+02
0.323297725348116E+02
0.326315048257058E+02
0.329616860760149E+02
0.333194447364791E+02
0.337038761356992E+02
0.341140516698834E+02
0.345490274202782E+02
0.350078520853385E+02
0.354895741515832E+02
0.359932482608059E+02
0.365179407607441E+02
0.370627344508667E+02
0.376267325544393E+02
0.382090619626513E+02
0.388088758067397E+02
0.394253554202733E+02
0.400577117567151E+02
0.407051863276732E+02
0.413670473704096E+02
0.420424375976375E+02
0.427282112413657E+02
0.434034256649921E+02
0.439747632532501E+02
0.442229362733646E+02
0.433087205357381E+02
0.427282112413657E+02
0.420418482770510E+02
0.413443779193366E+02
0.406570706907057E+02
0.399831260878726E+02
0.393234216059217E+02
0.386787098703882E+02
0.380497735482295E+02
0.374374295119488E+02
0.368425281482143E+02
0.362659521598530E+02
0.357086147829843E+02
0.351714573394780E+02
0.346554460462023E+02
0.341615680075122E+02
0.336908263269680E+02
0.332442342892052E+02
0.328228085838639E+02
0.324275615709701E+02
0.320594926211676E+02
0.317195786042302E+02
0.314087636441879E+02
0.311279483072697E+02
0.308779784370395E+02
0.306596338962455E+02
0.304736175131793E+02
0.303205445577750E+02
0.302009330855338E+02
0.301151954826546E+02
0.300636315217290E+02
0.300464231938554E+02
0.300636315217290E+02
0.301151954826546E+02
0.302009330855338E+02
0.303205445577750E+02
0.304736175131793E+02
0.306596338962455E+02
0.308779784370395E+02
0.311279483072697E+02
0.314087636441879E+02
0.317195786042302E+02
0.320594926211676E+02
0.324275615709701E+02
0.328228085838639E+02
0.332442342892052E+02
0.336908263269680E+02
0.341615680075122E+02
0.346554460462023E+02
0.351714573394780E+02
0.357086147829843E+02
0.362659521598530E+02
0.368425281482143E+02
0.374374295119488E+02
0.380497735482295E+02
0.386787098703882E+02
0.393234216059217E+02
0.399831260878726E+02
0.406570706907057E+02
0.413443779193366E+02
0.420418482770510E+02
0.427282112413657E+02
0.433087205357381E+02
0.435607980332234E+02
0.426325818911617E+02
0.420424375976375E+02
0.413443779193366E+02
0.406346261213844E+02
0.399347863259383E+02
0.392481116148494E+02
0.385754993220072E+02
0.379177228056177E+02
0.372755891071184E+02
0.366499435114900E+02
0.360416691713806E+02
0.354516862009243E+02
0.348809501463137E+02
0.343304497360131E+02
0.338012038123361E+02
0.332942573490259E+02
0.328106764676314E+02
0.323515423800411E+02
0.319179442065805E+02
0.315109706494163E+02
0.311317005400070E+02
0.307811923267189E+02
0.304604726233744E+02
0.301705239992846E+02
0.299122722530438E+02
0.296865734717971E+02
0.294942012298073E+02
0.293358343195076E+02
0.292120454295890E+02
0.291232911836411E+02
0.290699039266485E+02
0.290520855946119E+02
0.290699039266485E+02
0.291232911836411E+02
0.292120454295890E+02
0.293358343195076E+02
0.294942012298073E+02
0.296865734717971E+02
0.299122722530438E+02
0.301705239992846E+02
0.304604726233744E+02
0.307811923267189E+02
0.311317005400070E+02
0.315109706494163E+02
0.319179442065805E+02
0.323515423800411E+02
0.328106764676314E+02
0.332942573490259E+02
0.338012038123361E+02
0.343304497360131E+02
0.348809501463137E+02
0.354516862009243E+02
0.360416691713806E+02
0.366499435114900E+02
0.372755891071184E+02
0.379177228056177E+02
0.385754993220072E+02
0.392481116148494E+02
0.399347863259383E+02
0.406346261213844E+02
0.413443779193366E+02
0.420424375976375E+02
0.426325818911617E+02
0.428887756389163E+02
0.419669999321727E+02
0.413670473704096E+02
0.406570706907057E+02
0.399347863259383E+02
0.392221339791548E+02
0.385224193564883E+02
0.378365584012125E+02
0.371653441246230E+02
0.365096070974399E+02
0.358702204736762E+02
0.352481000046696E+02
0.346442035060774E+02
0.340595296686712E+02
0.334951160961755E+02
0.329520364488087E+02
0.324313965709585E+02
0.319343294870772E+02
0.314619891630387E+02
0.310155429524414E+02
0.305961626800496E+02
0.302050143586225E+02
0.298432465909352E+02
0.295119777749296E+02
0.292122823043758E+02
0.289451760364167E+02
0.287116013756007E+02
0.285124123948986E+02
0.283483604703357E+02
0.282200809398528E+02
0.281280813023742E+02
0.280727314453883E+02
0.280542563271865E+02
0.280727314453883E+02
0.281280813023742E+02
0.282200809398528E+02
0.283483604703357E+02
0.285124123948986E+02
0.287116013756007E+02
0.289451760364167E+02
0.292122823043758E+02
0.295119777749296E+02
0.298432465909352E+02
0.302050143586225E+02
0.305961626800496E+02
0.310155429524414E+02
0.314619891630387E+02
0.319343294870772E+02
0.324313965709585E+02
0.329520364488087E+02
0.334951160961755E+02
0.340595296686712E+02
0.346442035060774E+02
0.352481000046696E+02
0.358702204736762E+02
0.365096070974399E+02
0.371653441246230E+02
0.378365584012125E+02
0.385224193564883E+02
0.392221339791548E+02
0.399347863259383E+02
0.406570706907057E+02
0.413670473704096E+02
0.419669999321727E+02
0.422273854266907E+02
0.413150710353139E+02
0.407051863276732E+02
0.399831260878726E+02
0.392481116148494E+02
0.385224193564883E+02
0.378094062525351E+02
0.371100052155928E+02
0.364250273898116E+02
0.357553255597857E+02
0.351017997115963E+02
0.344653975201922E+02
0.338471142830137E+02
0.332479921732598E+02
0.326691186742012E+02
0.321116240467409E+02
0.315766776776693E+02
0.310654831576956E+02
0.305792719485490E+02
0.301192955195061E+02
0.296868158677601E+02
0.292830943858007E+02
0.289093791032616E+02
0.285668904100693E+02
0.282568054599839E+02
0.279802415544611E+02
0.277382389096507E+02
0.275317433056795E+02
0.273615891970861E+02
0.272284839158995E+02
0.271329936148622E+02
0.270755315707551E+02
0.270563493937853E+02
0.270755315707551E+02
0.271329936148622E+02
0.272284839158995E+02
0.273615891970861E+02
0.275317433056795E+02
0.277382389096507E+02
0.279802415544611E+02
0.282568054599839E+02
0.285668904100693E+02
0.289093791032616E+02
0.292830943858007E+02
0.296868158677601E+02
0.301192955195061E+02
0.305792719485490E+02
0.310654831576956E+02
0.315766776776693E+02
0.321116240467409E+02
0.326691186742012E+02
0.332479921732598E+02
0.338471142830137E+02
0.344653975201922E+02
0.351017997115963E+02
0.357553255597857E+02
0.364250273898116E+02
0.371100052155928E+02
0.378094062525351E+02
0.385224193564883E+02
0.392481116148494E+02
0.399831260878726E+02
0.407051863276732E+02
0.413150710353139E+02
0.415796985338014E+02
0.406776347106254E+02
0.400577117567151E+02
0.393234216059217E+02
0.385754993220072E+02
0.378365584012125E+02
0.371100052155928E+02
0.363967876233034E+02
0.356977329670736E+02
0.350137144851607E+02
0.343456574892619E+02
0.336945404179076E+02
0.330613953429572E+02
0.324473077844216E+02
0.318534156713160E+02
0.312809072710002E+02
0.307310178984340E+02
0.302050252123910E+02
0.297042429107945E+02
0.292300126551160E+02
0.287836940874228E+02
0.283666528560263E+02
0.279802466387458E+02
0.276258092470154E+02
0.273046330076264E+02
0.270179497471798E+02
0.267669108394085E+02
0.265525669063482E+02
0.263758478772142E+02
0.262375441889577E+02
0.261382899457609E+02
0.260785488303120E+02
0.260586034722186E+02
0.260785488303120E+02
0.261382899457609E+02
0.262375441889577E+02
0.263758478772142E+02
0.265525669063482E+02
0.267669108394085E+02
0.270179497471798E+02
0.273046330076264E+02
0.276258092470154E+02
0.279802466387458E+02
0.283666528560263E+02
0.287836940874228E+02
0.292300126551160E+02
0.297042429107945E+02
0.302050252123910E+02
0.307310178984340E+02
0.312809072710002E+02
0.318534156713160E+02
0.324473077844216E+02
0.330613953429572E+02
0.336945404179076E+02
0.343456574892619E+02
0.350137144851607E+02
0.356977329670736E+02
0.363967876233034E+02
0.371100052155928E+02
0.378365584012125E+02
0.385754993220072E+02
0.393234216059217E+02
0.400577117567151E+02
0.406776347106254E+02
0.409465461033470E+02
0.400554048803315E+02
0.394253554202733E+02
0.386787098703882E+02
0.379177228056177E+02
0.371653441246230E+02
0.364250273898116E+02
0.356977329670736E+02
0.349843020092502E+02
0.342856259513182E+02
0.336026533897514E+02
0.329363918030264E+02
0.322879087498490E+02
0.316583323821576E+02
0.310488510856994E+02
0.304607120380206E+02
0.298952184542853E+02
0.293537252783568E+02
0.288376330736854E+02
0.283483798799828E+02
0.278874308320341E+02
0.274562653907974E+02
0.270563621178889E+02
0.266891810346509E+02
0.263561437455097E+02
0.260586116676709E+02
0.257978628861614E+02
0.255750683306941E+02
0.253912681303807E+02
0.252473491229544E+02
0.251440245560488E+02
0.250818170021920E+02
0.250610454069612E+02
0.250818170021920E+02
0.251440245560488E+02
0.252473491229544E+02
0.253912681303807E+02
0.255750683306941E+02
0.257978628861614E+02
0.260586116676709E+02
0.263561437455097E+02
0.266891810346509E+02
0.270563621178889E+02
0.274562653907974E+02
0.278874308320341E+02
0.283483798799828E+02
0.288376330736854E+02
0.293537252783568E+02
0.298952184542853E+02
0.304607120380206E+02
0.310488510856994E+02
0.316583323821576E+02
0.322879087498490E+02
0.329363918030264E+02
0.336026533897514E+02
0.342856259513182E+02
0.349843020092502E+02
0.356977329670736E+02
0.364250273898116E+02
0.371653441246230E+02
0.379177228056177E+02
0.386787098703882E+02
0.394253554202733E+02
0.400554048803315E+02
0.403286342455829E+02
0.394491195739928E+02
0.388088758067397E+02
0.380497735482295E+02
0.372755891071184E+02
0.365096070974399E+02
0.357553255597857E+02
0.350137144851607E+02
0.342856259513182E+02
0.335719667793181E+02
0.328737062018601E+02
0.321918783588194E+02
0.315275843176380E+02
0.308819934385628E+02
0.302563438724677E+02
0.296519419464958E+02
0.290701601624274E+02
0.285124335079056E+02
0.279802537658955E+02
0.274751615085588E+02
0.269987354844544E+02
0.265525791593944E+02
0.261383042576513E+02
0.257575112761100E+02
0.254117671107040E+02
0.251025801384151E+02
0.248313733290778E+02
0.245994562016555E+02
0.244079966648960E+02
0.242579939626463E+02
0.241502540486913E+02
0.240853687180652E+02
0.240636997047421E+02
0.240853687180652E+02
0.241502540486913E+02
0.242579939626463E+02
0.244079966648960E+02
0.245994562016555E+02
0.248313733290778E+02
0.251025801384151E+02
0.254117671107040E+02
0.257575112761100E+02
0.261383042576513E+02
0.265525791593944E+02
0.269987354844544E+02
0.274751615085588E+02
0.279802537658955E+02
0.285124335079056E+02
0.290701601624274E+02
0.296519419464958E+02
0.302563438724677E+02
0.308819934385628E+02
0.315275843176380E+02
0.321918783588194E+02
0.328737062018601E+02
0.335719667793181E+02
0.342856259513182E+02
0.350137144851607E+02
0.357553255597857E+02
0.365096070974399E+02
0.372755891071184E+02
0.380497735482295E+02
0.388088758067397E+02
0.394491195739928E+02
0.397266921220134E+02
0.388595445060460E+02
0.382090619626513E+02
0.374374295119488E+02
0.366499435114900E+02
0.358702204736762E+02
0.351017997115963E+02
0.343456574892619E+02
0.336026533897514E+02
0.328737062018601E+02
0.321598024650381E+02
0.314619998520315E+02
0.307814301512482E+02
0.301193016543897E+02
0.294769007134584E+02
0.288555921872937E+02
0.282568184537435E+02
0.276820966231611E+02
0.271330135573982E+02
0.266112182827996E+02
0.261184113944325E+02
0.256563310916123E+02
0.252267355716454E+02
0.248313816481587E+02
0.244719996574672E+02
0.241502649699269E+02
0.238677667230195E+02
0.236259747178957E+02
0.234262057387608E+02
0.232695908229967E+02
0.231570451833426E+02
0.230892425197584E+02
0.230665953291770E+02
0.230892425197584E+02
0.231570451833426E+02
0.232695908229967E+02
0.234262057387608E+02
0.236259747178957E+02
0.238677667230195E+02
0.241502649699269E+02
0.244719996574672E+02
0.248313816481587E+02
0.252267355716454E+02
0.256563310916123E+02
0.261184113944325E+02
0.266112182827996E+02
0.271330135573982E+02
0.276820966231611E+02
0.282568184537435E+02
0.288555921872937E+02
0.294769007134584E+02
0.301193016543897E+02
0.307814301512482E+02
0.314619998520315E+02
0.321598024650381E+02
0.328737062018601E+02
0.336026533897514E+02
0.343456574892619E+02
0.351017997115963E+02
0.358702204736762E+02
0.366499435114900E+02
0.374374295119488E+02
0.382090619626513E+02
0.388595445060460E+02
0.391414753832484E+02
0.382874719664288E+02
0.376267325544393E+02
0.368425281482143E+02
0.360416691713806E+02
0.352481000046696E+02
0.344653975201922E+02
0.336945404179076E+02
0.329363918030264E+02
0.321918783588194E+02
0.314619998520315E+02
0.307478335149164E+02
0.300505381350505E+02
0.293713576486035E+02
0.287116239812102E+02
0.280727588233760E+02
0.274562739666115E+02
0.268637697660361E+02
0.262969312408996E+02
0.257575212846970E+02
0.252473704423213E+02
0.247683627364412E+02
0.243224171039282E+02
0.239114641502477E+02
0.235374181564966E+02
0.232021445841181E+02
0.229074237082957E+02
0.226549114487102E+02
0.224460989137554E+02
0.222822725729801E+02
0.221644772541525E+02
0.220934842595971E+02
0.220697667623544E+02
0.220934842595971E+02
0.221644772541525E+02
0.222822725729801E+02
0.224460989137554E+02
0.226549114487102E+02
0.229074237082957E+02
0.232021445841181E+02
0.235374181564966E+02
0.239114641502477E+02
0.243224171039282E+02
0.247683627364412E+02
0.252473704423213E+02
0.257575212846970E+02
0.262969312408996E+02
0.268637697660361E+02
0.274562739666115E+02
0.280727588233760E+02
0.287116239812102E+02
0.293713576486035E+02
0.300505381350505E+02
0.307478335149164E+02
0.314619998520315E+02
0.321918783588194E+02
0.329363918030264E+02
0.336945404179076E+02
0.344653975201922E+02
0.352481000046696E+02
0.360416691713806E+02
0.368425281482143E+02
0.376267325544393E+02
0.382874719664288E+02
0.385737649940076E+02
0.377337192567561E+02
0.370627344508667E+02
0.362659521598530E+02
0.354516862009243E+02
0.346442035060774E+02
0.338471142830137E+02
0.330613953429572E+02
0.322879087498490E+02
0.315275843176380E+02
0.307814301512482E+02
0.300505381350505E+02
0.293360892756507E+02
0.286393586918623E+02
0.279617199826825E+02
0.273046486321874E+02
0.266697240300182E+02
0.260586296009300E+02
0.254731504527922E+02
0.249151678789594E+02
0.243866500016496E+02
0.238896378356962E+02
0.234262261082591E+02
0.229985383129209E+02
0.226086957271335E+02
0.222587804935581E+02
0.219507933567761E+02
0.216866072329062E+02
0.214679184185276E+02
0.212961978362700E+02
0.211726451660543E+02
0.210981489183518E+02
0.210732553850925E+02
0.210981489183518E+02
0.211726451660543E+02
0.212961978362700E+02
0.214679184185276E+02
0.216866072329062E+02
0.219507933567761E+02
0.222587804935581E+02
0.226086957271335E+02
0.229985383129209E+02
0.234262261082591E+02
0.238896378356962E+02
0.243866500016496E+02
0.249151678789594E+02
0.254731504527922E+02
0.260586296009300E+02
0.266697240300182E+02
0.273046486321874E+02
0.279617199826825E+02
0.286393586918623E+02
0.293360892756507E+02
0.300505381350505E+02
0.307814301512482E+02
0.315275843176380E+02
0.322879087498490E+02
0.330613953429572E+02
0.338471142830137E+02
0.346442035060774E+02
0.354516862009243E+02
0.362659521598530E+02
0.370627344508667E+02
0.377337192567561E+02
0.380243656147750E+02
0.371991266163827E+02
0.365179407607441E+02
0.357086147829843E+02
0.348809501463137E+02
0.340595296686712E+02
0.332479921732598E+02
0.324473077844216E+02
0.316583323821576E+02
0.308819934385628E+02
0.301193016543897E+02
0.293713576486035E+02
0.286393586918623E+02
0.279246052839749E+02
0.272285073031927E+02
0.265525893679904E+02
0.258984949500086E+02
0.252679886623562E+02
0.246629560259641E+02
0.240853998980726E+02
0.235374326469593E+02
0.230212630982298E+02
0.225391772899072E+02
0.220935121910444E+02
0.216866217976454E+02
0.213208354498644E+02
0.209984088277191E+02
0.207214688602252E+02
0.204919546636430E+02
0.203115574992872E+02
0.201816634603042E+02
0.201033029935469E+02
0.200771112933817E+02
0.201033029935469E+02
0.201816634603042E+02
0.203115574992872E+02
0.204919546636430E+02
0.207214688602252E+02
0.209984088277191E+02
0.213208354498644E+02
0.216866217976454E+02
0.220935121910444E+02
0.225391772899072E+02
0.230212630982298E+02
0.235374326469593E+02
0.240853998980726E+02
0.246629560259641E+02
0.252679886623562E+02
0.258984949500086E+02
0.265525893679904E+02
0.272285073031927E+02
0.279246052839749E+02
0.286393586918623E+02
0.293713576486035E+02
0.301193016543897E+02
0.308819934385628E+02
0.316583323821576E+02
0.324473077844216E+02
0.332479921732598E+02
0.340595296686712E+02
0.348809501463137E+02
0.357086147829843E+02
0.365179407607441E+02
0.371991266163827E+02
0.374941034884053E+02
0.366845545842052E+02
0.359932482608059E+02
0.351714573394780E+02
0.343304497360131E+02
0.334951160961755E+02
0.326691186742012E+02
0.318534156713160E+02
0.310488510856994E+02
0.302563438724677E+02
0.294769007134584E+02
0.287116239812102E+02
0.279617199826825E+02
0.272285073031927E+02
0.265134249902923E+02
0.258180402155047E+02
0.251440549272065E+02
0.244933108606201E+02
0.238677921045111E+02
0.232696242477284E+02
0.227010689589186E+02
0.221645127163709E+02
0.216624483405141E+02
0.211974480390486E+02
0.207721269115536E+02
0.203890963324451E+02
0.200509073765318E+02
0.197599854690114E+02
0.195185586679631E+02
0.193285832798204E+02
0.191916716480627E+02
0.191090276782150E+02
0.190813957208259E+02
0.191090276782150E+02
0.191916716480627E+02
0.193285832798204E+02
0.195185586679631E+02
0.197599854690114E+02
0.200509073765318E+02
0.203890963324451E+02
0.207721269115536E+02
0.211974480390486E+02
0.216624483405141E+02
0.221645127163709E+02
0.227010689589186E+02
0.232696242477284E+02
0.238677921045111E+02
0.244933108606201E+02
0.251440549272065E+02
0.258180402155047E+02
0.265134249902923E+02
0.272285073031927E+02
0.279617199826825E+02
0.287116239812102E+02
0.294769007134584E+02
0.302563438724677E+02
0.310488510856994E+02
0.318534156713160E+02
0.326691186742012E+02
0.334951160961755E+02
0.343304497360131E+02
0.351714573394780E+02
0.359932482608059E+02
0.366845545842052E+02
0.369838237819433E+02
0.361908807460016E+02
0.354895741515832E+02
0.346554460462023E+02
0.338012038123361E+02
0.329520364488087E+02
0.321116240467409E+02
0.312809072710002E+02
0.304607120380206E+02
0.296519419464958E+02
0.288555921872937E+02
0.280727588233760E+02
0.273046486321874E+02
0.265525893679904E+02
0.258180402155047E+02
0.251026020924785E+02
0.244080273128168E+02
0.237362279403566E+02
0.230892819462633E+02
0.224694360361430E+02
0.218791037515889E+02
0.213208572040147E+02
0.207974106133042E+02
0.203115937676697E+02
0.198663136807285E+02
0.194645031931647E+02
0.191090561338540E+02
0.188027499582747E+02
0.185481584721917E+02
0.183475591517959E+02
0.182028413738901E+02
0.181154231527982E+02
0.180861843169400E+02
0.181154231527982E+02
0.182028413738901E+02
0.183475591517959E+02
0.185481584721917E+02
0.188027499582747E+02
0.191090561338540E+02
0.194645031931647E+02
0.198663136807285E+02
0.203115937676697E+02
0.207974106133042E+02
0.213208572040147E+02
0.218791037515889E+02
0.224694360361430E+02
0.230892819462633E+02
0.237362279403566E+02
0.244080273128168E+02
0.251026020924785E+02
0.258180402155047E+02
0.265525893679904E+02
0.273046486321874E+02
0.280727588233760E+02
0.288555921872937E+02
0.296519419464958E+02
0.304607120380206E+02
0.312809072710002E+02
0.321116240467409E+02
0.329520364488087E+02
0.338012038123361E+02
0.346554460462023E+02
0.354895741515832E+02
0.361908807460016E+02
0.364943873382090E+02
0.357189958239892E+02
0.350078520853385E+02
0.341615680075122E+02
0.332942573490259E+02
0.324313965709585E+02
0.315766776776693E+02
0.307310178984340E+02
0.298952184542853E+02
0.290701601624274E+02
0.282568184537435E+02
0.274562739666115E+02
0.266697240300182E+02
0.258984949500086E+02
0.251440549272065E+02
0.244080273128168E+02
0.236922037477748E+02
0.229985565163626E+02
0.223292491756400E+02
0.216866441947821E+02
0.210733059635417E+02
0.204919971333287E+02
0.199456658899603E+02
0.194374215093384E+02
0.189704955387184E+02
0.185481863304956E+02
0.181737855934535E+02
0.178504872380986E+02
0.175812810848028E+02
0.173688367889793E+02
0.172153861820776E+02
0.171226144726303E+02
0.170915716563384E+02
0.171226144726303E+02
0.172153861820776E+02
0.173688367889793E+02
0.175812810848028E+02
0.178504872380986E+02
0.181737855934535E+02
0.185481863304956E+02
0.189704955387184E+02
0.194374215093384E+02
0.199456658899603E+02
0.204919971333287E+02
0.210733059635417E+02
0.216866441947821E+02
0.223292491756400E+02
0.229985565163626E+02
0.236922037477748E+02
0.244080273128168E+02
0.251440549272065E+02
0.258984949500086E+02
0.266697240300182E+02
0.274562739666115E+02
0.282568184537435E+02
0.290701601624274E+02
0.298952184542853E+02
0.307310178984340E+02
0.315766776776693E+02
0.324313965709585E+02
0.332942573490259E+02
0.341615680075122E+02
0.350078520853385E+02
0.357189958239892E+02
0.360266667987792E+02
0.352697990755605E+02
0.345490274202782E+02
0.336908263269680E+02
0.328106764676314E+02
0.319343294870772E+02
0.310654831576956E+02
0.302050252123910E+02
0.293537252783568E+02
0.285124335079056E+02
0.276820966231611E+02
0.268637697660361E+02
0.260586296009300E+02
0.252679886623562E+02
0.244933108606201E+02
0.237362279403566E+02
0.229985565163626E+02
0.222823150741941E+02
0.215897400047552E+02
0.209232993311708E+02
0.202857022804145E+02
0.196799022680313E+02
0.191090902506332E+02
0.185766748549682E+02
0.180862453751417E+02
0.176415138705273E+02
0.172462334747818E+02
0.169040919081262E+02
0.166185822119172E+02
0.163928567570764E+02
0.162295750534870E+02
0.161307597878836E+02
0.160976775543518E+02
0.161307597878836E+02
0.162295750534870E+02
0.163928567570764E+02
0.166185822119172E+02
0.169040919081262E+02
0.172462334747818E+02
0.176415138705273E+02
0.180862453751417E+02
0.185766748549682E+02
0.191090902506332E+02
0.196799022680313E+02
0.202857022804145E+02
0.209232993311708E+02
0.215897400047552E+02
0.222823150741941E+02
0.229985565163626E+02
0.237362279403566E+02
0.244933108606201E+02
0.252679886623562E+02
0.260586296009300E+02
0.268637697660361E+02
0.276820966231611E+02
0.285124335079056E+02
0.293537252783568E+02
0.302050252123910E+02
0.310654831576956E+02
0.319343294870772E+02
0.328106764676314E+02
0.336908263269680E+02
0.345490274202782E+02
0.352697990755605E+02
0.355815420702529E+02
0.348441929822174E+02
0.341140516698834E+02
0.332442342892052E+02
0.323515423800411E+02
0.314619891630387E+02
0.305792719485490E+02
0.297042429107945E+02
0.288376330736854E+02
0.279802537658955E+02
0.271330135573982E+02
0.262969312408996E+02
0.254731504527922E+02
0.246629560259641E+02
0.238677921045111E+02
0.230892819462633E+02
0.223292491756400E+02
0.215897400047552E+02
0.208730455890890E+02
0.201817231983605E+02
0.195186142412068E+02
0.188868563779618E+02
0.182898860187919E+02
0.177314265274322E+02
0.172154566234824E+02
0.167461531146978E+02
0.163278026400045E+02
0.159646790784391E+02
0.156608871017116E+02
0.154201780757469E+02
0.152457515159699E+02
0.151400620487963E+02
0.151046560944840E+02
0.151400620487963E+02
0.152457515159699E+02
0.154201780757469E+02
0.156608871017116E+02
0.159646790784391E+02
0.163278026400045E+02
0.167461531146978E+02
0.172154566234824E+02
0.177314265274322E+02
0.182898860187919E+02
0.188868563779618E+02
0.195186142412068E+02
0.201817231983605E+02
0.208730455890890E+02
0.215897400047552E+02
0.223292491756400E+02
0.230892819462633E+02
0.238677921045111E+02
0.246629560259641E+02
0.254731504527922E+02
0.262969312408996E+02
0.271330135573982E+02
0.279802537658955E+02
0.288376330736854E+02
0.297042429107945E+02
0.305792719485490E+02
0.314619891630387E+02
0.323515423800411E+02
0.332442342892052E+02
0.341140516698834E+02
0.348441929822174E+02
0.351598951194476E+02
0.344430772277994E+02
0.337038761356992E+02
0.328228085838639E+02
0.319179442065805E+02
0.310155429524414E+02
0.301192955195061E+02
0.292300126551160E+02
0.283483798799828E+02
0.274751615085588E+02
0.266112182827996E+02
0.257575212846970E+02
0.249151678789594E+02
0.240853998980726E+02
0.232696242477284E+02
0.224694360361430E+02
0.216866441947821E+02
0.209232993311708E+02
0.201817231983605E+02
0.194645386331890E+02
0.187746980551138E+02
0.181155075843253E+02
0.174906425170473E+02
0.169041483424990E+02
0.163604198851591E+02
0.158641498961625E+02
0.154202381487507E+02
0.150336537088862E+02
0.147092475070045E+02
0.144515202063635E+02
0.142643611808990E+02
0.141507860487887E+02
0.141127088324094E+02
0.141507860487887E+02
0.142643611808990E+02
0.144515202063635E+02
0.147092475070045E+02
0.150336537088862E+02
0.154202381487507E+02
0.158641498961625E+02
0.163604198851591E+02
0.169041483424990E+02
0.174906425170473E+02
0.181155075843253E+02
0.187746980551138E+02
0.194645386331890E+02
0.201817231983605E+02
0.209232993311708E+02
0.216866441947821E+02
0.224694360361430E+02
0.232696242477284E+02
0.240853998980726E+02
0.249151678789594E+02
0.257575212846970E+02
0.266112182827996E+02
0.274751615085588E+02
0.283483798799828E+02
0.292300126551160E+02