<?xml version="1.0"?>
<VTKFile type="RectilinearGrid" version="0.1" byte_order="LittleEndian">
<RectilinearGrid WholeExtent="0   63    0   63    0    3">
<Piece Extent="0   15    0   15    0    3">
<Coordinates>
<DataArray Name="x" type="Float32" format="ascii">
0.000000000000000E+00
0.100000000000000E+00
0.200000000000000E+00
0.300000000000000E+00
0.400000000000000E+00
0.500000000000000E+00
0.600000000000000E+00
0.700000000000000E+00
0.800000000000000E+00
0.900000000000000E+00
0.100000000000000E+01
0.110000000000000E+01
0.120000000000000E+01
0.130000000000000E+01
0.140000000000000E+01
0.150000000000000E+01
</DataArray>
<DataArray Name="y" type="Float32" format="ascii">
0.000000000000000E+00
0.100000000000000E+00
0.200000000000000E+00
0.300000000000000E+00
0.400000000000000E+00
0.500000000000000E+00
0.600000000000000E+00
0.700000000000000E+00
0.800000000000000E+00
0.900000000000000E+00
0.100000000000000E+01
0.110000000000000E+01
0.120000000000000E+01
0.130000000000000E+01
0.140000000000000E+01
0.150000000000000E+01
</DataArray>
<DataArray Name="z" type="Float32" format="ascii">
0.000000000000000E+00
0.100000000000000E+00
0.200000000000000E+00
0.300000000000000E+00
</DataArray>
</Coordinates>
<PointData Scalars="c">
<DataArray type="Float32" Name="c" format="ascii">
0.383201059433557E+02
0.382460548421893E+02
0.380998637080407E+02
0.378852423105441E+02
0.376074857622251E+02
0.372731813051305E+02
0.368898632087371E+02
0.364656468416726E+02
0.360088721802443E+02
0.355277827781104E+02
0.350302594857862E+02
0.345236201887205E+02
0.340144887708037E+02
0.335087294648011E+02
0.330114374500881E+02
0.325269733374916E+02
0.382067948235638E+02
0.381324541403172E+02
0.379856891035479E+02
0.377702197296679E+02
0.374913558398068E+02
0.371557031300986E+02
0.367708172318446E+02
0.363448369032277E+02
0.358861266921627E+02
0.354029551596641E+02
0.349032279993833E+02
0.343942873475349E+02
0.338827804939513E+02
0.333745941406796E+02
0.328748450390549E+02
0.323879146067908E+02
0.380211571794550E+02
0.379463395358233E+02
0.377986292061696E+02
0.375817630094623E+02
0.373010748855840E+02
0.369632007908948E+02
0.365757313849285E+02
0.361468437799130E+02
0.356849428185144E+02
0.351983380760258E+02
0.346949759997627E+02
0.341822385216887E+02
0.336668113612780E+02
0.331546181400985E+02
0.326508110904648E+02
0.321598058965534E+02
0.377678160012504E+02
0.376923422184574E+02
0.375433314002726E+02
0.373245433256266E+02
0.370413448910107E+02
0.367004134005929E+02
0.363093873765728E+02
0.358764963396355E+02
0.354102001973021E+02
0.349188645827809E+02
0.344104916626787E+02
0.338925178067622E+02
0.333716813451589E+02
0.328539565000092E+02
0.323445442068912E+02
0.318479072772676E+02
0.374528674455428E+02
0.373765692283904E+02
0.372259242213796E+02
0.370047207911029E+02
0.367183668673922E+02
0.363735912338651E+02
0.359780920025374E+02
0.355401639450873E+02
0.350683355340751E+02
0.345710422196681E+02
0.340563555921453E+02
0.335317798946504E+02
0.330041191217426E+02
0.324794107471566E+02
0.319629167115660E+02
0.314591590116443E+02
0.370835500213321E+02
0.370062721217774E+02
0.368536849935575E+02
0.366296105824180E+02
0.363395050138370E+02
0.359901575335461E+02
0.355893362388719E+02
0.351454125364897E+02
0.346669954343644E+02
0.341626024094223E+02
0.336403866568916E+02
0.331079322697131E+02
0.325721205951402E+02
0.320390637597432E+02
0.315140958927179E+02
0.310018092574365E+02
0.366678767299889E+02
0.365894785370570E+02
0.364346702627329E+02
0.362073117085767E+02
0.359129133301860E+02
0.355583325258594E+02
0.351514162749060E+02
0.347006223597302E+02
0.342146505683205E+02
0.337021108638396E+02
0.331712485038527E+02
0.326297377526169E+02
0.320845474461692E+02
0.315418743412748E+02
0.310071346621747E+02
0.304850009038872E+02
0.362142621853214E+02
0.361346187410675E+02
0.359773412096639E+02
0.357463307603966E+02
0.354471572132901E+02
0.350867524254946E+02
0.346730495478884E+02
0.342146007150907E+02
0.337202048839283E+02
0.331985730773048E+02
0.326580512106292E+02
0.321064122487563E+02
0.315507209665439E+02
0.309972671767215E+02
0.304515577094132E+02
0.299183540327345E+02
0.357311739972728E+02
0.356501764864649E+02
0.354902134689359E+02
0.352552302064245E+02
0.349508597845400E+02
0.345841133985928E+02
0.341630160017620E+02
0.336962202333247E+02
0.331926306851157E+02
0.326610660544491E+02
0.321099795704228E+02
0.315472495540918E+02
0.309800433995342E+02
0.304147507657915E+02
0.298569761223084E+02
0.293115773515467E+02
0.352268318538466E+02
0.351443876527869E+02
0.349815549009836E+02
0.347423248924072E+02
0.344323967486243E+02
0.340588644568238E+02
0.336298487434450E+02
0.331541070761742E+02
0.326406542155977E+02
0.320984211731354E+02
0.315359731843795E+02
0.309612986774993E+02
0.303816725381639E+02
0.298035893818842E+02
0.292327568241727E+02
0.286741352517873E+02
0.347089699335643E+02
0.346250023276493E+02
0.344591470214502E+02
0.342154425190523E+02
0.338996556497899E+02
0.335189652596584E+02
0.330815902017946E+02
0.325963953096569E+02
0.320725081528527E+02
0.315189747540993E+02
0.309444751086040E+02
0.303571106102227E+02
0.297642667009118E+02
0.291725463710398E+02
0.285877643399011E+02
0.280149882063926E+02
0.341846698294971E+02
0.340991175185987E+02
0.339301172971418E+02
0.336817553348630E+02
0.333598667980853E+02
0.329717161404246E+02
0.325256211545369E+02
0.320305548708692E+02
0.314957584934720E+02
0.309303938833840E+02
0.303432566708395E+02
0.297425622300029E+02
0.291358078487760E+02
0.285297066349110E+02
0.279301828196408E+02
0.273424145243512E+02
0.336602632787941E+02
0.335730797852548E+02
0.334008415896658E+02
0.331476823124287E+02
0.328195051172284E+02
0.324236595872247E+02
0.319685618301386E+02
0.314632923080309E+02
0.309172049797009E+02
0.303395766054788E+02
0.297393175416080E+02
0.291247563913108E+02
0.285035018626261E+02
0.278823772863137E+02
0.272674172816726E+02
0.266639124020333E+02
0.331412976002360E+02
0.330524506787197E+02
0.328769096028827E+02
0.326188546186518E+02
0.322842556648568E+02
0.318805458566018E+02
0.314162376776095E+02
0.309005167911088E+02
0.303428474595365E+02
0.297526187667831E+02
0.291388532205960E+02
0.285099902393400E+02
0.278737478929785E+02
0.272370582635763E+02
0.266060657365008E+02
0.259861738128344E+02
0.326325523897145E+02
0.325420235148213E+02
0.323631418144535E+02
0.321001327906887E+02
0.317590311472885E+02
0.313473509326439E+02
0.308736978892774E+02
0.303473593339751E+02
0.297779059627214E+02
0.291748351205947E+02
0.285472773679175E+02
0.279037789875474E+02
0.272521638260912E+02
0.265994697479360E+02
0.259519488353294E+02
0.253151166782368E+02
0.321380938480753E+02
0.320458778282664E+02
0.318636441842463E+02
0.315956618299306E+02
0.312480275357040E+02
0.308283328094941E+02
0.303452725037103E+02
0.298082308844648E+02
0.292268799600893E+02
0.286108199560618E+02
0.279692840235572E+02
0.273109199708144E+02
0.266436524371537E+02
0.259746207054613E+02
0.253101811092678E+02
0.246559591278756E+02
0.383201059433557E+02
0.382460548421893E+02
0.380998637080407E+02
0.378852423105441E+02
0.376074857622251E+02
0.372731813051305E+02
0.368898632087371E+02
0.364656468416726E+02
0.360088721802443E+02
0.355277827781104E+02
0.350302594857862E+02
0.345236201887205E+02
0.340144887708037E+02
0.335087294648011E+02
0.330114374500881E+02
0.325269733374916E+02
0.382067948235638E+02
0.381324541403172E+02
0.379856891035479E+02
0.377702197296679E+02
0.374913558398068E+02
0.371557031300986E+02
0.367708172318446E+02
0.363448369032277E+02
0.358861266921627E+02
0.354029551596641E+02
0.349032279993833E+02
0.343942873475349E+02
0.338827804939513E+02
0.333745941406796E+02
0.328748450390549E+02
0.323879146067908E+02
0.380211571794550E+02
0.379463395358233E+02
0.377986292061696E+02
0.375817630094623E+02
0.373010748855840E+02
0.369632007908948E+02
0.365757313849285E+02
0.361468437799130E+02
0.356849428185144E+02
0.351983380760258E+02
0.346949759997627E+02
0.341822385216887E+02
0.336668113612780E+02
0.331546181400985E+02
0.326508110904648E+02
0.321598058965534E+02
0.377678160012504E+02
0.376923422184574E+02
0.375433314002726E+02
0.373245433256266E+02
0.370413448910107E+02
0.367004134005929E+02
0.363093873765728E+02
0.358764963396355E+02
0.354102001973021E+02
0.349188645827809E+02
0.344104916626787E+02
0.338925178067622E+02
0.333716813451589E+02
0.328539565000092E+02
0.323445442068912E+02
0.318479072772676E+02
0.374528674455428E+02
0.373765692283904E+02
0.372259242213796E+02
0.370047207911029E+02
0.367183668673922E+02
0.363735912338651E+02
0.359780920025374E+02
0.355401639450873E+02
0.350683355340751E+02
0.345710422196681E+02
0.340563555921453E+02
0.335317798946504E+02
0.330041191217426E+02
0.324794107471566E+02
0.319629167115660E+02
0.314591590116443E+02
0.370835500213321E+02
0.370062721217774E+02
0.368536849935575E+02
0.366296105824180E+02
0.363395050138370E+02
0.359901575335461E+02
0.355893362388719E+02
0.351454125364897E+02
0.346669954343644E+02
0.341626024094223E+02
0.336403866568916E+02
0.331079322697131E+02
0.325721205951402E+02
0.320390637597432E+02
0.315140958927179E+02
0.310018092574365E+02
0.366678767299889E+02
0.365894785370570E+02
0.364346702627329E+02
0.362073117085767E+02
0.359129133301860E+02
0.355583325258594E+02
0.351514162749060E+02
0.347006223597302E+02
0.342146505683205E+02
0.337021108638396E+02
0.331712485038527E+02
0.326297377526169E+02
0.320845474461692E+02
0.315418743412748E+02
0.310071346621747E+02
0.304850009038872E+02
0.362142621853214E+02
0.361346187410675E+02
0.359773412096639E+02
0.357463307603966E+02
0.354471572132901E+02
0.350867524254946E+02
0.346730495478884E+02
0.342146007150907E+02
0.337202048839283E+02
0.331985730773048E+02
0.326580512106292E+02
0.321064122487563E+02
0.315507209665439E+02
0.309972671767215E+02
0.304515577094132E+02
0.299183540327345E+02
0.357311739972728E+02
0.356501764864649E+02
0.354902134689359E+02
0.352552302064245E+02
0.349508597845400E+02
0.345841133985928E+02
0.341630160017620E+02
0.336962202333247E+02
0.331926306851157E+02
0.326610660544491E+02
0.321099795704228E+02
0.315472495540918E+02
0.309800433995342E+02
0.304147507657915E+02
0.298569761223084E+02
0.293115773515467E+02
0.352268318538466E+02
0.351443876527869E+02
0.349815549009836E+02
0.347423248924072E+02
0.344323967486243E+02
0.340588644568238E+02
0.336298487434450E+02
0.331541070761742E+02
0.326406542155977E+02
0.320984211731354E+02
0.315359731843795E+02
0.309612986774993E+02
0.303816725381639E+02
0.298035893818842E+02
0.292327568241727E+02
0.286741352517873E+02
0.347089699335643E+02
0.346250023276493E+02
0.344591470214502E+02
0.342154425190523E+02
0.338996556497899E+02
0.335189652596584E+02
0.330815902017946E+02
0.325963953096569E+02
0.320725081528527E+02
0.315189747540993E+02
0.309444751086040E+02
0.303571106102227E+02
0.297642667009118E+02
0.291725463710398E+02
0.285877643399011E+02
0.280149882063926E+02
0.341846698294971E+02
0.340991175185987E+02
0.339301172971418E+02
0.336817553348630E+02
0.333598667980853E+02
0.329717161404246E+02
0.325256211545369E+02
0.320305548708692E+02
0.314957584934720E+02
0.309303938833840E+02
0.303432566708395E+02
0.297425622300029E+02
0.291358078487760E+02
0.285297066349110E+02
0.279301828196408E+02
0.273424145243512E+02
0.336602632787941E+02
0.335730797852548E+02
0.334008415896658E+02
0.331476823124287E+02
0.328195051172284E+02
0.324236595872247E+02
0.319685618301386E+02
0.314632923080309E+02
0.309172049797009E+02
0.303395766054788E+02
0.297393175416080E+02
0.291247563913108E+02
0.285035018626261E+02
0.278823772863137E+02
0.272674172816726E+02
0.266639124020333E+02
0.331412976002360E+02
0.330524506787197E+02
0.328769096028827E+02
0.326188546186518E+02
0.322842556648568E+02
0.318805458566018E+02
0.314162376776095E+02
0.309005167911088E+02
0.303428474595365E+02
0.297526187667831E+02
0.291388532205960E+02
0.285099902393400E+02
0.278737478929785E+02
0.272370582635763E+02
0.266060657365008E+02
0.259861738128344E+02
0.326325523897145E+02
0.325420235148213E+02
0.323631418144535E+02
0.321001327906887E+02
0.317590311472885E+02
0.313473509326439E+02
0.308736978892774E+02
0.303473593339751E+02
0.297779059627214E+02
0.291748351205947E+02
0.285472773679175E+02
0.279037789875474E+02
0.272521638260912E+02
0.265994697479360E+02
0.259519488353294E+02
0.253151166782368E+02
0.321380938480753E+02
0.320458778282664E+02
0.318636441842463E+02
0.315956618299306E+02
0.312480275357040E+02
0.308283328094941E+02
0.303452725037103E+02
0.298082308844648E+02
0.292268799600893E+02
0.286108199560618E+02
0.279692840235572E+02
0.273109199708144E+02
0.266436524371537E+02
0.259746207054613E+02
0.253101811092678E+02
0.246559591278756E+02
0.383201059433557E+02
0.382460548421893E+02
0.380998637080407E+02
0.378852423105441E+02
0.376074857622251E+02
0.372731813051305E+02
0.368898632087371E+02
0.364656468416726E+02
0.360088721802443E+02
0.355277827781104E+02
0.350302594857862E+02
0.345236201887205E+02
0.340144887708037E+02
0.335087294648011E+02
0.330114374500881E+02
0.325269733374916E+02
0.382067948235638E+02
0.381324541403172E+02
0.379856891035479E+02
0.377702197296679E+02
0.374913558398068E+02
0.371557031300986E+02
0.367708172318446E+02
0.363448369032277E+02
0.358861266921627E+02
0.354029551596641E+02
0.349032279993833E+02
0.343942873475349E+02
0.338827804939513E+02
0.333745941406796E+02
0.328748450390549E+02
0.323879146067908E+02
0.380211571794550E+02
0.379463395358233E+02
0.377986292061696E+02
0.375817630094623E+02
0.373010748855840E+02
0.369632007908948E+02
0.365757313849285E+02
0.361468437799130E+02
0.356849428185144E+02
0.351983380760258E+02
0.346949759997627E+02
0.341822385216887E+02
0.336668113612780E+02
0.331546181400985E+02
0.326508110904648E+02
0.321598058965534E+02
0.377678160012504E+02
0.376923422184574E+02
0.375433314002726E+02
0.373245433256266E+02
0.370413448910107E+02
0.367004134005929E+02
0.363093873765728E+02
0.358764963396355E+02
0.354102001973021E+02
0.349188645827809E+02
0.344104916626787E+02
0.338925178067622E+02
0.333716813451589E+02
0.328539565000092E+02
0.323445442068912E+02
0.318479072772676E+02
0.374528674455428E+02
0.373765692283904E+02
0.372259242213796E+02
0.370047207911029E+02
0.367183668673922E+02
0.363735912338651E+02
0.359780920025374E+02
0.355401639450873E+02
0.350683355340751E+02
0.345710422196681E+02
0.340563555921453E+02
0.335317798946504E+02
0.330041191217426E+02
0.324794107471566E+02
0.319629167115660E+02
0.314591590116443E+02
0.370835500213321E+02
0.370062721217774E+02
0.368536849935575E+02
0.366296105824180E+02
0.363395050138370E+02
0.359901575335461E+02
0.355893362388719E+02
0.351454125364897E+02
0.346669954343644E+02
0.341626024094223E+02
0.336403866568916E+02
0.331079322697131E+02
0.325721205951402E+02
0.320390637597432E+02
0.315140958927179E+02
0.310018092574365E+02
0.366678767299889E+02
0.365894785370570E+02
0.364346702627329E+02
0.362073117085767E+02
0.359129133301860E+02
0.355583325258594E+02
0.351514162749060E+02
0.347006223597302E+02
0.342146505683205E+02
0.337021108638396E+02
0.331712485038527E+02
0.326297377526169E+02
0.320845474461692E+02
0.315418743412748E+02
0.310071346621747E+02
0.304850009038872E+02
0.362142621853214E+02
0.361346187410675E+02
0.359773412096639E+02
0.357463307603966E+02
0.354471572132901E+02
0.350867524254946E+02
0.346730495478884E+02
0.342146007150907E+02
0.337202048839283E+02
0.331985730773048E+02
0.326580512106292E+02
0.321064122487563E+02
0.315507209665439E+02
0.309972671767215E+02
0.304515577094132E+02
0.299183540327345E+02
0.357311739972728E+02
0.356501764864649E+02
0.354902134689359E+02
0.352552302064245E+02
0.349508597845400E+02
0.345841133985928E+02
0.341630160017620E+02
0.336962202333247E+02
0.331926306851157E+02
0.326610660544491E+02
0.321099795704228E+02
0.315472495540918E+02
0.309800433995342E+02
0.304147507657915E+02
0.298569761223084E+02
0.293115773515467E+02
0.352268318538466E+02
0.351443876527869E+02
0.349815549009836E+02
0.347423248924072E+02
0.344323967486243E+02
0.340588644568238E+02
0.336298487434450E+02
0.331541070761742E+02
0.326406542155977E+02
0.320984211731354E+02
0.315359731843795E+02
0.309612986774993E+02
0.303816725381639E+02
0.298035893818842E+02
0.292327568241727E+02
0.286741352517873E+02
0.347089699335643E+02
0.346250023276493E+02
0.344591470214502E+02
0.342154425190523E+02
0.338996556497899E+02
0.335189652596584E+02
0.330815902017946E+02
0.325963953096569E+02
0.320725081528527E+02
0.315189747540993E+02
0.309444751086040E+02
0.303571106102227E+02
0.297642667009118E+02
0.291725463710398E+02
0.285877643399011E+02
0.280149882063926E+02
0.341846698294971E+02
0.340991175185987E+02
0.339301172971418E+02
0.336817553348630E+02
0.333598667980853E+02
0.329717161404246E+02
0.325256211545369E+02
0.320305548708692E+02
0.314957584934720E+02
0.309303938833840E+02
0.303432566708395E+02
0.297425622300029E+02
0.291358078487760E+02
0.285297066349110E+02
0.279301828196408E+02
0.273424145243512E+02
0.336602632787941E+02
0.335730797852548E+02
0.334008415896658E+02
0.331476823124287E+02
0.328195051172284E+02
0.324236595872247E+02
0.319685618301386E+02
0.314632923080309E+02
0.309172049797009E+02
0.303395766054788E+02
0.297393175416080E+02
0.291247563913108E+02
0.285035018626261E+02
0.278823772863137E+02
0.272674172816726E+02
0.266639124020333E+02
0.331412976002360E+02
0.330524506787197E+02
0.328769096028827E+02
0.326188546186518E+02
0.322842556648568E+02
0.318805458566018E+02
0.314162376776095E+02
0.309005167911088E+02
0.303428474595365E+02
0.297526187667831E+02
0.291388532205960E+02
0.285099902393400E+02
0.278737478929785E+02
0.272370582635763E+02
0.266060657365008E+02
0.259861738128344E+02
0.326325523897145E+02
0.325420235148213E+02
0.323631418144535E+02
0.321001327906887E+02
0.317590311472885E+02
0.313473509326439E+02
0.308736978892774E+02
0.303473593339751E+02
0.297779059627214E+02
0.291748351205947E+02
0.285472773679175E+02
0.279037789875474E+02
0.272521638260912E+02
0.265994697479360E+02
0.259519488353294E+02
0.253151166782368E+02
0.321380938480753E+02
0.320458778282664E+02
0.318636441842463E+02
0.315956618299306E+02
0.312480275357040E+02
0.308283328094941E+02
0.303452725037103E+02
0.298082308844648E+02
0.292268799600893E+02
0.286108199560618E+02
0.279692840235572E+02
0.273109199708144E+02
0.266436524371537E+02
0.259746207054613E+02
0.253101811092678E+02
0.246559591278756E+02
0.383201059433557E+02
0.382460548421893E+02
0.380998637080407E+02
0.378852423105441E+02
0.376074857622251E+02
0.372731813051305E+02
0.368898632087371E+02
0.364656468416726E+02
0.360088721802443E+02
0.355277827781104E+02
0.350302594857862E+02
0.345236201887205E+02
0.340144887708037E+02
0.335087294648011E+02
0.330114374500881E+02
0.325269733374916E+02
0.382067948235638E+02
0.381324541403172E+02
0.379856891035479E+02
0.377702197296679E+02
0.374913558398068E+02
0.371557031300986E+02
0.367708172318446E+02
0.363448369032277E+02
0.358861266921627E+02
0.354029551596641E+02
0.349032279993833E+02
0.343942873475349E+02
0.338827804939513E+02
0.333745941406796E+02
0.328748450390549E+02
0.323879146067908E+02
0.380211571794550E+02
0.379463395358233E+02
0.377986292061696E+02
0.375817630094623E+02
0.373010748855840E+02
0.369632007908948E+02
0.365757313849285E+02
0.361468437799130E+02
0.356849428185144E+02
0.351983380760258E+02
0.346949759997627E+02
0.341822385216887E+02
0.336668113612780E+02
0.331546181400985E+02
0.326508110904648E+02
0.321598058965534E+02
0.377678160012504E+02
0.376923422184574E+02
0.375433314002726E+02
0.373245433256266E+02
0.370413448910107E+02
0.367004134005929E+02
0.363093873765728E+02
0.358764963396355E+02
0.354102001973021E+02
0.349188645827809E+02
0.344104916626787E+02
0.338925178067622E+02
0.333716813451589E+02
0.328539565000092E+02
0.323445442068912E+02
0.318479072772676E+02
0.374528674455428E+02
0.373765692283904E+02
0.372259242213796E+02
0.370047207911029E+02
0.367183668673922E+02
0.363735912338651E+02
0.359780920025374E+02
0.355401639450873E+02
0.350683355340751E+02
0.345710422196681E+02
0.340563555921453E+02
0.335317798946504E+02
0.330041191217426E+02
0.324794107471566E+02
0.319629167115660E+02
0.314591590116443E+02
0.370835500213321E+02
0.370062721217774E+02
0.368536849935575E+02
0.366296105824180E+02
0.363395050138370E+02
0.359901575335461E+02
0.355893362388719E+02
0.351454125364897E+02
0.346669954343644E+02
0.341626024094223E+02
0.336403866568916E+02
0.331079322697131E+02
0.325721205951402E+02
0.320390637597432E+02
0.315140958927179E+02
0.310018092574365E+02
0.366678767299889E+02
0.365894785370570E+02
0.364346702627329E+02
0.362073117085767E+02
0.359129133301860E+02
0.355583325258594E+02
0.351514162749060E+02
0.347006223597302E+02
0.342146505683205E+02
0.337021108638396E+02
0.331712485038527E+02
0.326297377526169E+02
0.320845474461692E+02
0.315418743412748E+02
0.310071346621747E+02
0.304850009038872E+02
0.362142621853214E+02
0.361346187410675E+02
0.359773412096639E+02
0.357463307603966E+02
0.354471572132901E+02
0.350867524254946E+02
0.346730495478884E+02
0.342146007150907E+02
0.337202048839283E+02
0.331985730773048E+02
0.326580512106292E+02
0.321064122487563E+02
0.315507209665439E+02
0.309972671767215E+02
0.304515577094132E+02
0.299183540327345E+02
0.357311739972728E+02
0.356501764864649E+02
0.354902134689359E+02
0.352552302064245E+02
0.349508597845400E+02
0.345841133985928E+02
0.341630160017620E+02
0.336962202333247E+02
0.331926306851157E+02
0.326610660544491E+02
0.321099795704228E+02
0.315472495540918E+02
0.309800433995342E+02
0.304147507657915E+02
0.298569761223084E+02
0.293115773515467E+02
0.352268318538466E+02
0.351443876527869E+02
0.349815549009836E+02
0.347423248924072E+02
0.344323967486243E+02
0.340588644568238E+02
0.336298487434450E+02
0.331541070761742E+02
0.326406542155977E+02
0.320984211731354E+02
0.315359731843795E+02
0.309612986774993E+02
0.303816725381639E+02
0.298035893818842E+02
0.292327568241727E+02
0.286741352517873E+02
0.347089699335643E+02
0.346250023276493E+02
0.344591470214502E+02
0.342154425190523E+02
0.338996556497899E+02
0.335189652596584E+02
0.330815902017946E+02
0.325963953096569E+02
0.320725081528527E+02
0.315189747540993E+02
0.309444751086040E+02
0.303571106102227E+02
0.297642667009118E+02
0.291725463710398E+02
0.285877643399011E+02
0.280149882063926E+02
0.341846698294971E+02
0.340991175185987E+02
0.339301172971418E+02
0.336817553348630E+02
0.333598667980853E+02
0.329717161404246E+02
0.325256211545369E+02
0.320305548708692E+02
0.314957584934720E+02
0.309303938833840E+02
0.303432566708395E+02
0.297425622300029E+02
0.291358078487760E+02
0.285297066349110E+02
0.279301828196408E+02
0.273424145243512E+02
0.336602632787941E+02
0.335730797852548E+02
0.334008415896658E+02
0.331476823124287E+02
0.328195051172284E+02
0.324236595872247E+02
0.319685618301386E+02
0.314632923080309E+02
0.309172049797009E+02
0.303395766054788E+02
0.297393175416080E+02
0.291247563913108E+02
0.285035018626261E+02
0.278823772863137E+02
0.272674172816726E+02
0.266639124020333E+02
0.331412976002360E+02
0.330524506787197E+02
0.328769096028827E+02
0.326188546186518E+02
0.322842556648568E+02
0.318805458566018E+02
0.314162376776095E+02
0.309005167911088E+02
0.303428474595365E+02
0.297526187667831E+02
0.291388532205960E+02
0.285099902393400E+02
0.278737478929785E+02
0.272370582635763E+02
0.266060657365008E+02
0.259861738128344E+02
0.326325523897145E+02
0.325420235148213E+02
0.323631418144535E+02
0.321001327906887E+02
0.317590311472885E+02
0.313473509326439E+02
0.308736978892774E+02
0.303473593339751E+02
0.297779059627214E+02
0.291748351205947E+02
0.285472773679175E+02
0.279037789875474E+02
0.272521638260912E+02
0.265994697479360E+02
0.259519488353294E+02
0.253151166782368E+02
0.321380938480753E+02
0.320458778282664E+02
0.318636441842463E+02
0.315956618299306E+02
0.312480275357040E+02
0.308283328094941E+02
0.303452725037103E+02
0.298082308844648E+02
0.292268799600893E+02
0.286108199560618E+02
0.279692840235572E+02
0.273109199708144E+02
0.266436524371537E+02
0.259746207054613E+02
0.253101811092678E+02
0.246559591278756E+02
</DataArray>
</PointData>
</Piece>
</RectilinearGrid>
</VTKFile>
