<?xml version="1.0"?>
<VTKFile type="RectilinearGrid" version="0.1" byte_order="LittleEndian">
<RectilinearGrid WholeExtent="0   63    0   63    0    3">
<Piece Extent="0   63    0   63    0    3">
<Coordinates>
<DataArray Name="x" type="Float32" format="ascii">
0.000000000000000E+00
0.100000000000000E+00
0.200000000000000E+00
0.300000000000000E+00
0.400000000000000E+00
0.500000000000000E+00
0.600000000000000E+00
0.700000000000000E+00
0.800000000000000E+00
0.900000000000000E+00
0.100000000000000E+01
0.110000000000000E+01
0.120000000000000E+01
0.130000000000000E+01
0.140000000000000E+01
0.150000000000000E+01
0.160000000000000E+01
0.170000000000000E+01
0.180000000000000E+01
0.190000000000000E+01
0.200000000000000E+01
0.210000000000000E+01
0.220000000000000E+01
0.230000000000000E+01
0.240000000000000E+01
0.250000000000000E+01
0.260000000000000E+01
0.270000000000000E+01
0.280000000000000E+01
0.290000000000000E+01
0.300000000000000E+01
0.310000000000000E+01
0.320000000000000E+01
0.330000000000000E+01
0.340000000000000E+01
0.350000000000000E+01
0.360000000000000E+01
0.370000000000000E+01
0.380000000000000E+01
0.390000000000000E+01
0.400000000000000E+01
0.410000000000000E+01
0.420000000000000E+01
0.430000000000000E+01
0.440000000000000E+01
0.450000000000000E+01
0.460000000000000E+01
0.470000000000000E+01
0.480000000000000E+01
0.490000000000000E+01
0.500000000000000E+01
0.510000000000000E+01
0.520000000000000E+01
0.530000000000000E+01
0.540000000000000E+01
0.550000000000000E+01
0.560000000000000E+01
0.570000000000000E+01
0.580000000000000E+01
0.590000000000000E+01
0.600000000000000E+01
0.610000000000000E+01
0.620000000000000E+01
0.630000000000000E+01
</DataArray>
<DataArray Name="y" type="Float32" format="ascii">
0.000000000000000E+00
0.100000000000000E+00
0.200000000000000E+00
0.300000000000000E+00
0.400000000000000E+00
0.500000000000000E+00
0.600000000000000E+00
0.700000000000000E+00
0.800000000000000E+00
0.900000000000000E+00
0.100000000000000E+01
0.110000000000000E+01
0.120000000000000E+01
0.130000000000000E+01
0.140000000000000E+01
0.150000000000000E+01
0.160000000000000E+01
0.170000000000000E+01
0.180000000000000E+01
0.190000000000000E+01
0.200000000000000E+01
0.210000000000000E+01
0.220000000000000E+01
0.230000000000000E+01
0.240000000000000E+01
0.250000000000000E+01
0.260000000000000E+01
0.270000000000000E+01
0.280000000000000E+01
0.290000000000000E+01
0.300000000000000E+01
0.310000000000000E+01
0.320000000000000E+01
0.330000000000000E+01
0.340000000000000E+01
0.350000000000000E+01
0.360000000000000E+01
0.370000000000000E+01
0.380000000000000E+01
0.390000000000000E+01
0.400000000000000E+01
0.410000000000000E+01
0.420000000000000E+01
0.430000000000000E+01
0.440000000000000E+01
0.450000000000000E+01
0.460000000000000E+01
0.470000000000000E+01
0.480000000000000E+01
0.490000000000000E+01
0.500000000000000E+01
0.510000000000000E+01
0.520000000000000E+01
0.530000000000000E+01
0.540000000000000E+01
0.550000000000000E+01
0.560000000000000E+01
0.570000000000000E+01
0.580000000000000E+01
0.590000000000000E+01
0.600000000000000E+01
0.610000000000000E+01
0.620000000000000E+01
0.630000000000000E+01
</DataArray>
<DataArray Name="z" type="Float32" format="ascii">
0.000000000000000E+00
0.100000000000000E+00
0.200000000000000E+00
0.300000000000000E+00
</DataArray>
</Coordinates>
<PointData Scalars="c">
<DataArray type="Float32" Name="c" format="ascii">
0.444621328721121E+02
0.439237739966702E+02
0.432681536173432E+02
0.425938319381599E+02
0.419279484988579E+02
0.412754384778793E+02
0.406373982630779E+02
0.400145609415272E+02
0.394076663609966E+02
0.388174816927323E+02
0.382448008426231E+02
0.376904428916938E+02
0.371552500243246E+02
0.366400848895551E+02
0.361458273447598E+02
0.356733705378651E+02
0.352236162945832E+02
0.347974697912605E+02
0.343958335121081E+02
0.340196005118181E+02
0.336696470306120E+02
0.333468245379627E+02
0.330519513125654E+02
0.327858036981271E+02
0.325491072053604E+02
0.323425276580362E+02
0.321666626027620E+02
0.320220332160002E+02
0.319090769457407E+02
0.318281411176892E+02
0.317794777161283E+02
0.317632395179639E+02
0.317794777161283E+02
0.318281411176892E+02
0.319090769457407E+02
0.320220332160002E+02
0.321666626027620E+02
0.323425276580362E+02
0.325491072053604E+02
0.327858036981271E+02
0.330519513125654E+02
0.333468245379627E+02
0.336696470306120E+02
0.340196005118181E+02
0.343958335121081E+02
0.347974697912605E+02
0.352236162945832E+02
0.356733705378651E+02
0.361458273447598E+02
0.366400848895551E+02
0.371552500243246E+02
0.376904428916938E+02
0.382448008426231E+02
0.388174816927323E+02
0.394076663609966E+02
0.400145609415272E+02
0.406373982630779E+02
0.412754384778793E+02
0.419279484988579E+02
0.425938319381599E+02
0.432681536173432E+02
0.439237739966702E+02
0.444621328721121E+02
0.446868170856093E+02
0.439237739966702E+02
0.433785514292285E+02
0.427142987290558E+02
0.420307917291033E+02
0.413555269168922E+02
0.406935115661793E+02
0.400458628056398E+02
0.394133310286978E+02
0.387966756279999E+02
0.381966860744536E+02
0.376141815030190E+02
0.370500092960772E+02
0.365050431214509E+02
0.359801803598338E+02
0.354763388593307E+02
0.349944529610436E+02
0.345354687498023E+02
0.341003384987764E+02
0.336900142962356E+02
0.333054408673168E+02
0.329475476331410E+02
0.326172400833947E+02
0.323153905754560E+02
0.320428287116271E+02
0.318003314838522E+02
0.315886134098100E+02
0.314083169125441E+02
0.312600032148894E+02
0.311441440271927E+02
0.310611143001665E+02
0.310111862930480E+02
0.309945251706748E+02
0.310111862930480E+02
0.310611143001665E+02
0.311441440271927E+02
0.312600032148894E+02
0.314083169125441E+02
0.315886134098100E+02
0.318003314838522E+02
0.320428287116271E+02
0.323153905754560E+02
0.326172400833947E+02
0.329475476331410E+02
0.333054408673168E+02
0.336900142962356E+02
0.341003384987764E+02
0.345354687498023E+02
0.349944529610436E+02
0.354763388593307E+02
0.359801803598338E+02
0.365050431214509E+02
0.370500092960772E+02
0.376141815030190E+02
0.381966860744536E+02
0.387966756279999E+02
0.394133310286978E+02
0.400458628056398E+02
0.406935115661793E+02
0.413555269168922E+02
0.420307917291033E+02
0.427142987290558E+02
0.433785514292285E+02
0.439237739966702E+02
0.441512533844071E+02
0.432681536173432E+02
0.427142987290558E+02
0.420392404052667E+02
0.413442533206447E+02
0.406572571824584E+02
0.399833413309207E+02
0.393236468675271E+02
0.386789449894929E+02
0.380500188849459E+02
0.374376854114491E+02
0.368427949346985E+02
0.362662301297792E+02
0.357089041975862E+02
0.351717584166255E+02
0.346557589517036E+02
0.341618928459998E+02
0.336911631325637E+02
0.332445830162107E+02
0.328231690977754E+02
0.324279336401644E+02
0.320598759096408E+02
0.317199726657955E+02
0.314091679185375E+02
0.311283621182854E+02
0.308784009936839E+02
0.306600642962892E+02
0.304740547499114E+02
0.303209875297196E+02
0.302013806090512E+02
0.301156463071608E+02
0.300640843471250E+02
0.300468766896329E+02
0.300640843471250E+02
0.301156463071608E+02
0.302013806090512E+02
0.303209875297196E+02
0.304740547499114E+02
0.306600642962892E+02
0.308784009936839E+02
0.311283621182854E+02
0.314091679185375E+02
0.317199726657955E+02
0.320598759096408E+02
0.324279336401644E+02
0.328231690977754E+02
0.332445830162107E+02
0.336911631325637E+02
0.341618928459998E+02
0.346557589517036E+02
0.351717584166255E+02
0.357089041975862E+02
0.362662301297792E+02
0.368427949346985E+02
0.374376854114491E+02
0.380500188849459E+02
0.386789449894929E+02
0.393236468675271E+02
0.399833413309207E+02
0.406572571824584E+02
0.413442533206447E+02
0.420392404052667E+02
0.427142987290558E+02
0.432681536173432E+02
0.434991695117851E+02
0.425938319381599E+02
0.420307917291033E+02
0.413442533206447E+02
0.406370649112248E+02
0.399375829616858E+02
0.392509798505617E+02
0.385784205715985E+02
0.379206972705123E+02
0.372786174325155E+02
0.366530262298741E+02
0.360448066836364E+02
0.354548787560324E+02
0.348841978197814E+02
0.343337524072757E+02
0.338045611414570E+02
0.332976687531261E+02
0.328141410975914E+02
0.323550590981280E+02
0.319215115657624E+02
0.315145868752179E+02
0.311353635158273E+02
0.307848995835665E+02
0.304642213349591E+02
0.301743109833346E+02
0.299160939795824E+02
0.296904260789160E+02
0.294980805472140E+02
0.293397358998174E+02
0.292159645869889E+02
0.291272230392026E+02
0.290738434592267E+02
0.290560276959718E+02
0.290738434592267E+02
0.291272230392026E+02
0.292159645869889E+02
0.293397358998174E+02
0.294980805472140E+02
0.296904260789160E+02
0.299160939795824E+02
0.301743109833346E+02
0.304642213349591E+02
0.307848995835665E+02
0.311353635158273E+02
0.315145868752179E+02
0.319215115657624E+02
0.323550590981280E+02
0.328141410975914E+02
0.332976687531261E+02
0.338045611414570E+02
0.343337524072757E+02
0.348841978197814E+02
0.354548787560324E+02
0.360448066836364E+02
0.366530262298741E+02
0.372786174325155E+02
0.379206972705123E+02
0.385784205715985E+02
0.392509798505617E+02
0.399375829616858E+02
0.406370649112248E+02
0.413442533206447E+02
0.420307917291033E+02
0.425938319381599E+02
0.428286220681306E+02
0.419279484988579E+02
0.413555269168922E+02
0.406572571824584E+02
0.399375829616858E+02
0.392253011506444E+02
0.385256665726386E+02
0.378398669884519E+02
0.371687144839518E+02
0.365130400728592E+02
0.358737167840257E+02
0.352516602209757E+02
0.346478280269792E+02
0.340632186940713E+02
0.334988695993611E+02
0.329558541474082E+02
0.324352778972317E+02
0.319382735581858E+02
0.314659947520976E+02
0.310196084613059E+02
0.306002861149305E+02
0.302091933097320E+02
0.298474782174356E+02
0.295162587964600E+02
0.292166090003627E+02
0.289495442542171E+02
0.287160065482781E+02
0.285168495690930E+02
0.283528243442779E+02
0.282245659111064E+02
0.281325815244019E+02
0.280772408915684E+02
0.280587688604856E+02
0.280772408915684E+02
0.281325815244019E+02
0.282245659111064E+02
0.283528243442779E+02
0.285168495690930E+02
0.287160065482781E+02
0.289495442542171E+02
0.292166090003627E+02
0.295162587964600E+02
0.298474782174356E+02
0.302091933097320E+02
0.306002861149305E+02
0.310196084613059E+02
0.314659947520976E+02
0.319382735581858E+02
0.324352778972317E+02
0.329558541474082E+02
0.334988695993611E+02
0.340632186940713E+02
0.346478280269792E+02
0.352516602209757E+02
0.358737167840257E+02
0.365130400728592E+02
0.371687144839518E+02
0.378398669884519E+02
0.385256665726386E+02
0.392253011506444E+02
0.399375829616858E+02
0.406572571824584E+02
0.413555269168922E+02
0.419279484988579E+02
0.421665952978227E+02
0.412754384778793E+02
0.406935115661793E+02
0.399833413309207E+02
0.392509798505617E+02
0.385256665726386E+02
0.378127376534819E+02
0.371134020284234E+02
0.364284902166802E+02
0.357588554569963E+02
0.351053976107791E+02
0.344690642029407E+02
0.338508503530314E+02
0.332517980261189E+02
0.326729944649310E+02
0.321155696556051E+02
0.315806926746571E+02
0.310695667664395E+02
0.305834230105876E+02
0.301235124600183E+02
0.296910966640991E+02
0.292874365403258E+02
0.289137796220908E+02
0.285713457894196E+02
0.282613116817176E+02
0.279847940922874E+02
0.277428327471394E+02
0.275363729668212E+02
0.273662487896035E+02
0.272331671868999E+02
0.271376940177691E+02
0.270802423418179E+02
0.270610636358912E+02
0.270802423418179E+02
0.271376940177691E+02
0.272331671868999E+02
0.273662487896035E+02
0.275363729668212E+02
0.277428327471394E+02
0.279847940922874E+02
0.282613116817176E+02
0.285713457894196E+02
0.289137796220908E+02
0.292874365403258E+02
0.296910966640991E+02
0.301235124600183E+02
0.305834230105876E+02
0.310695667664395E+02
0.315806926746571E+02
0.321155696556051E+02
0.326729944649310E+02
0.332517980261189E+02
0.338508503530314E+02
0.344690642029407E+02
0.351053976107791E+02
0.357588554569963E+02
0.364284902166802E+02
0.371134020284234E+02
0.378127376534819E+02
0.385256665726386E+02
0.392509798505617E+02
0.399833413309207E+02
0.406935115661793E+02
0.412754384778793E+02
0.415179909998387E+02
0.406373982630779E+02
0.400458628056398E+02
0.393236468675271E+02
0.385784205715985E+02
0.378398669884519E+02
0.371134020284234E+02
0.364002538114546E+02
0.357012693612147E+02
0.350173223846412E+02
0.343493380726267E+02
0.336982947148001E+02
0.330652242028514E+02
0.324512118422143E+02
0.318573953099376E+02
0.312849625813698E+02
0.307351486372837E+02
0.302092307587239E+02
0.297085222220022E+02
0.292343642240689E+02
0.287881159021280E+02
0.283711423637076E+02
0.279848007164054E+02
0.276304241806514E+02
0.273093044822737E+02
0.270226728497738E+02
0.267716800761357E+02
0.265573762356249E+02
0.263806907587507E+02
0.262424136485554E+02
0.261431786546086E+02
0.260834491966737E+02
0.260635077426159E+02
0.260834491966737E+02
0.261431786546086E+02
0.262424136485554E+02
0.263806907587507E+02
0.265573762356249E+02
0.267716800761357E+02
0.270226728497738E+02
0.273093044822737E+02
0.276304241806514E+02
0.279848007164054E+02
0.283711423637076E+02
0.287881159021280E+02
0.292343642240689E+02
0.297085222220022E+02
0.302092307587239E+02
0.307351486372837E+02
0.312849625813698E+02
0.318573953099376E+02
0.324512118422143E+02
0.330652242028514E+02
0.336982947148001E+02
0.343493380726267E+02
0.350173223846412E+02
0.357012693612147E+02
0.364002538114546E+02
0.371134020284234E+02
0.378398669884519E+02
0.385784205715985E+02
0.393236468675271E+02
0.400458628056398E+02
0.406373982630779E+02
0.408838961158480E+02
0.400145609415272E+02
0.394133310286978E+02
0.386789449894929E+02
0.379206972705123E+02
0.371687144839518E+02
0.364284902166802E+02
0.357012693612147E+02
0.349879130620241E+02
0.342893132406724E+02
0.336064183800943E+02
0.329402358143689E+02
0.322918329229692E+02
0.316623376397109E+02
0.310529380893348E+02
0.304648811417556E+02
0.298994696546264E+02
0.293580581619480E+02
0.288420467636066E+02
0.283528729821977E+02
0.278920013838828E+02
0.274609108138109E+02
0.270610791775314E+02
0.266939658098205E+02
0.263609916106963E+02
0.260635172905365E+02
0.258028202429272E+02
0.255800707410808E+02
0.253963083129695E+02
0.252524192707540E+02
0.251491164308606E+02
0.250869220451568E+02
0.250661548615700E+02
0.250869220451568E+02
0.251491164308606E+02
0.252524192707540E+02
0.253963083129695E+02
0.255800707410808E+02
0.258028202429272E+02
0.260635172905365E+02
0.263609916106963E+02
0.266939658098205E+02
0.270610791775314E+02
0.274609108138109E+02
0.278920013838828E+02
0.283528729821977E+02
0.288420467636066E+02
0.293580581619480E+02
0.298994696546264E+02
0.304648811417556E+02
0.310529380893348E+02
0.316623376397109E+02
0.322918329229692E+02
0.329402358143689E+02
0.336064183800943E+02
0.342893132406724E+02
0.349879130620241E+02
0.357012693612147E+02
0.364284902166802E+02
0.371687144839518E+02
0.379206972705123E+02
0.386789449894929E+02
0.394133310286978E+02
0.400145609415272E+02
0.402650363990904E+02
0.394076663609966E+02
0.387966756279999E+02
0.380500188849459E+02
0.372786174325155E+02
0.365130400728592E+02
0.357588554569963E+02
0.350173223846412E+02
0.342893132406724E+02
0.335757353547402E+02
0.328775578575146E+02
0.321958147533020E+02
0.315316069355199E+02
0.308861035467854E+02
0.302605424714980E+02
0.296562297163622E+02
0.290745374040297E+02
0.285169000803463E+02
0.279848090210101E+02
0.274798042243169E+02
0.270034637994487E+02
0.265573905111849E+02
0.261431953282425E+02
0.257624779482342E+02
0.254168044387919E+02
0.251076823380694E+02
0.248365337884708E+02
0.246046675174989E+02
0.244132507044993E+02
0.242632819521349E+02
0.241555666858186E+02
0.240906963063668E+02
0.240690323042254E+02
0.240906963063668E+02
0.241555666858186E+02
0.242632819521349E+02
0.244132507044993E+02
0.246046675174989E+02
0.248365337884708E+02
0.251076823380694E+02
0.254168044387919E+02
0.257624779482342E+02
0.261431953282425E+02
0.265573905111849E+02
0.270034637994487E+02
0.274798042243169E+02
0.279848090210101E+02
0.285169000803463E+02
0.290745374040297E+02
0.296562297163622E+02
0.302605424714980E+02
0.308861035467854E+02
0.315316069355199E+02
0.321958147533020E+02
0.328775578575146E+02
0.335757353547402E+02
0.342893132406724E+02
0.350173223846412E+02
0.357588554569963E+02
0.365130400728592E+02
0.372786174325155E+02
0.380500188849459E+02
0.387966756279999E+02
0.394076663609966E+02
0.396621435499676E+02
0.388174816927323E+02
0.381966860744536E+02
0.374376854114491E+02
0.366530262298741E+02
0.358737167840257E+02
0.351053976107791E+02
0.343493380726267E+02
0.336064183800943E+02
0.328775578575146E+02
0.321637429590776E+02
0.314660312362862E+02
0.307855543143315E+02
0.301235202732855E+02
0.294812151983615E+02
0.288600036196097E+02
0.282613275174637E+02
0.276867035302415E+02
0.271377179683010E+02
0.266160192239967E+02
0.261233071754032E+02
0.256613192246525E+02
0.252318126985731E+02
0.248365434786651E+02
0.244772409242950E+02
0.241555794061510E+02
0.238731470663325E+02
0.236314127458970E+02
0.234316923377909E+02
0.232751160911243E+02
0.231625985658417E+02
0.230948129730371E+02
0.230721715068922E+02
0.230948129730371E+02
0.231625985658417E+02
0.232751160911243E+02
0.234316923377909E+02
0.236314127458970E+02
0.238731470663325E+02
0.241555794061510E+02
0.244772409242950E+02
0.248365434786651E+02
0.252318126985731E+02
0.256613192246525E+02
0.261233071754032E+02
0.266160192239967E+02
0.271377179683010E+02
0.276867035302415E+02
0.282613275174637E+02
0.288600036196097E+02
0.294812151983615E+02
0.301235202732855E+02
0.307855543143315E+02
0.314660312362862E+02
0.321637429590776E+02
0.328775578575146E+02
0.336064183800943E+02
0.343493380726267E+02
0.351053976107791E+02
0.358737167840257E+02
0.366530262298741E+02
0.374376854114491E+02
0.381966860744536E+02
0.388174816927323E+02
0.390759754911679E+02
0.382448008426231E+02
0.376141815030190E+02
0.368427949346985E+02
0.360448066836364E+02
0.352516602209757E+02
0.344690642029407E+02
0.336982947148001E+02
0.329402358143689E+02
0.321958147533020E+02
0.314660312362862E+02
0.307519623955392E+02
0.300547668734331E+02
0.293756884078418E+02
0.287160586644733E+02
0.280772990033242E+02
0.274609208057785E+02
0.268685239285593E+02
0.263017927966160E+02
0.257624896074296E+02
0.252524441051544E+02
0.247735394078753E+02
0.243276934499476E+02
0.239168357483902E+02
0.235428794288314E+02
0.232076887564154E+02
0.229130428024255E+02
0.226605963142876E+02
0.224518393032020E+02
0.222880572615627E+02
0.221702942033915E+02
0.220993208190424E+02
0.220756099014991E+02
0.220993208190424E+02
0.221702942033915E+02
0.222880572615627E+02
0.224518393032020E+02
0.226605963142876E+02
0.229130428024255E+02
0.232076887564154E+02
0.235428794288314E+02
0.239168357483902E+02
0.243276934499476E+02
0.247735394078753E+02
0.252524441051544E+02
0.257624896074296E+02
0.263017927966160E+02
0.268685239285593E+02
0.274609208057785E+02
0.280772990033242E+02
0.287160586644733E+02
0.293756884078418E+02
0.300547668734331E+02
0.307519623955392E+02
0.314660312362862E+02
0.321958147533020E+02
0.329402358143689E+02
0.336982947148001E+02
0.344690642029407E+02
0.352516602209757E+02
0.360448066836364E+02
0.368427949346985E+02
0.376141815030190E+02
0.382448008426231E+02
0.385073157087459E+02
0.376904428916938E+02
0.370500092960772E+02
0.362662301297792E+02
0.354548787560324E+02
0.346478280269792E+02
0.338508503530314E+02
0.330652242028514E+02
0.322918329229692E+02
0.315316069355199E+02
0.307855543143315E+02
0.300547668734331E+02
0.293404255013554E+02
0.286438051415168E+02
0.279662791495762E+02
0.273093226868421E+02
0.266745147287209E+02
0.260635381821810E+02
0.254781775223485E+02
0.249203132851452E+02
0.243919127038628E+02
0.238950157705376E+02
0.234317160593664E+02
0.230041357922373E+02
0.226143948767644E+02
0.222645740182623E+02
0.219566724972005E+02
0.216925617886177E+02
0.214739368275945E+02
0.213022673146155E+02
0.211787519053499E+02
0.211042783362979E+02
0.210793924171871E+02
0.211042783362979E+02
0.211787519053499E+02
0.213022673146155E+02
0.214739368275945E+02
0.216925617886177E+02
0.219566724972005E+02
0.222645740182623E+02
0.226143948767644E+02
0.230041357922373E+02
0.234317160593664E+02
0.238950157705376E+02
0.243919127038628E+02
0.249203132851452E+02
0.254781775223485E+02
0.260635381821810E+02
0.266745147287209E+02
0.273093226868421E+02
0.279662791495762E+02
0.286438051415168E+02
0.293404255013554E+02
0.300547668734331E+02
0.307855543143315E+02
0.315316069355199E+02
0.322918329229692E+02
0.330652242028514E+02
0.338508503530314E+02
0.346478280269792E+02
0.354548787560324E+02
0.362662301297792E+02
0.370500092960772E+02
0.376904428916938E+02
0.379569716406471E+02
0.371552500243246E+02
0.365050431214509E+02
0.357089041975862E+02
0.348841978197814E+02
0.340632186940713E+02
0.332517980261189E+02
0.324512118422143E+02
0.316623376397109E+02
0.308861035467854E+02
0.301235202732855E+02
0.293756884078418E+02
0.286438051415168E+02
0.279291708338733E+02
0.272331951492967E+02
0.265574024043155E+02
0.259034356648538E+02
0.252730590181010E+02
0.246681573224832E+02
0.240907326209835E+02
0.235428963034966E+02
0.230268560455419E+02
0.225448965629195E+02
0.220993533395447E+02
0.216925787446192E+02
0.213269003848985E+02
0.210045721499974E+02
0.207277191847596E+02
0.204982789015923E+02
0.203179410184691E+02
0.201880903256638E+02
0.201097562801292E+02
0.200835734572511E+02
0.201097562801292E+02
0.201880903256638E+02
0.203179410184691E+02
0.204982789015923E+02
0.207277191847596E+02
0.210045721499974E+02
0.213269003848985E+02
0.216925787446192E+02
0.220993533395447E+02
0.225448965629195E+02
0.230268560455419E+02
0.235428963034966E+02
0.240907326209835E+02
0.246681573224832E+02
0.252730590181010E+02
0.259034356648538E+02
0.265574024043155E+02
0.272331951492967E+02
0.279291708338733E+02
0.286438051415168E+02
0.293756884078418E+02
0.301235202732855E+02
0.308861035467854E+02
0.316623376397109E+02
0.324512118422143E+02
0.332517980261189E+02
0.340632186940713E+02
0.348841978197814E+02
0.357089041975862E+02
0.365050431214509E+02
0.371552500243246E+02
0.374257725668075E+02
0.366400848895551E+02
0.359801803598338E+02
0.351717584166255E+02
0.343337524072757E+02
0.334988695993611E+02
0.326729944649310E+02
0.318573953099376E+02
0.310529380893348E+02
0.302605424714980E+02
0.294812151983615E+02
0.287160586644733E+02
0.279662791495762E+02
0.272331951492967E+02
0.265182455435058E+02
0.258229972402270E+02
0.251491518084999E+02
0.244985504665706E+02
0.238731766257823E+02
0.232751550145905E+02
0.227067462379388E+02
0.221703354915395E+02
0.216684140868339E+02
0.212035525003477E+02
0.207783638981143E+02
0.203954575573445E+02
0.200573823515451E+02
0.197665614806710E+02
0.195252208511849E+02
0.193353148001683E+02
0.191984539946217E+02
0.191158410582951E+02
0.190882195368984E+02
0.191158410582951E+02
0.191984539946217E+02
0.193353148001683E+02
0.195252208511849E+02
0.197665614806710E+02
0.200573823515451E+02
0.203954575573445E+02
0.207783638981143E+02
0.212035525003477E+02
0.216684140868339E+02
0.221703354915395E+02
0.227067462379388E+02
0.232751550145905E+02
0.238731766257823E+02
0.244985504665706E+02
0.251491518084999E+02
0.258229972402270E+02
0.265182455435058E+02
0.272331951492967E+02
0.279662791495762E+02
0.287160586644733E+02
0.294812151983615E+02
0.302605424714980E+02
0.310529380893348E+02
0.318573953099376E+02
0.326729944649310E+02
0.334988695993611E+02
0.343337524072757E+02
0.351717584166255E+02
0.359801803598338E+02
0.366400848895551E+02
0.369145669503115E+02
0.361458273447598E+02
0.354763388593307E+02
0.346557589517036E+02
0.338045611414570E+02
0.329558541474082E+02
0.321155696556051E+02
0.312849625813698E+02
0.304648811417556E+02
0.296562297163622E+02
0.288600036196097E+02
0.280772990033242E+02
0.273093226868421E+02
0.265574024043155E+02
0.258229972402270E+02
0.251077079104722E+02
0.244132864005330E+02
0.237416442910172E+02
0.230948588841767E+02
0.224751759987836E+02
0.218850080402329E+02
0.213269257069328E+02
0.208036415098707E+02
0.203179832271471E+02
0.198728555755091E+02
0.194711888520346E+02
0.191158741651346E+02
0.188096861739644E+02
0.185551959410799E+02
0.183546784011882E+02
0.182100207464532E+02
0.181226393087442E+02
0.180934128549641E+02
0.181226393087442E+02
0.182100207464532E+02
0.183546784011882E+02
0.185551959410799E+02
0.188096861739644E+02
0.191158741651346E+02
0.194711888520346E+02
0.198728555755091E+02
0.203179832271471E+02
0.208036415098707E+02
0.213269257069328E+02
0.218850080402329E+02
0.224751759987836E+02
0.230948588841767E+02
0.237416442910172E+02
0.244132864005330E+02
0.251077079104722E+02
0.258229972402270E+02
0.265574024043155E+02
0.273093226868421E+02
0.280772990033242E+02
0.288600036196097E+02
0.296562297163622E+02
0.304648811417556E+02
0.312849625813698E+02
0.321155696556051E+02
0.329558541474082E+02
0.338045611414570E+02
0.346557589517036E+02
0.354763388593307E+02
0.361458273447598E+02
0.364242191833559E+02
0.356733705378651E+02
0.349944529610436E+02
0.341618928459998E+02
0.332976687531261E+02
0.324352778972317E+02
0.315806926746571E+02
0.307351486372837E+02
0.298994696546264E+02
0.290745374040297E+02
0.282613275174637E+02
0.274609208057785E+02
0.266745147287209E+02
0.259034356648538E+02
0.251491518084999E+02
0.244132864005330E+02
0.236976308372114E+02
0.230041569881624E+02
0.223350277851347E+02
0.216926048166601E+02
0.210794512900210E+02
0.204983283277379E+02
0.199521822032105E+02
0.194441198743233E+02
0.189773701668580E+02
0.185552283444041E+02
0.181809827381873E+02
0.178578237180406E+02
0.175887375712403E+02
0.173763906329187E+02
0.172230118478041E+02
0.171302841824167E+02
0.170992562100017E+02
0.171302841824167E+02
0.172230118478041E+02
0.173763906329187E+02
0.175887375712403E+02
0.178578237180406E+02
0.181809827381873E+02
0.185552283444041E+02
0.189773701668580E+02
0.194441198743233E+02
0.199521822032105E+02
0.204983283277379E+02
0.210794512900210E+02
0.216926048166601E+02
0.223350277851347E+02
0.230041569881624E+02
0.236976308372114E+02
0.244132864005330E+02
0.251491518084999E+02
0.259034356648538E+02
0.266745147287209E+02
0.274609208057785E+02
0.282613275174637E+02
0.290745374040297E+02
0.298994696546264E+02
0.307351486372837E+02
0.315806926746571E+02
0.324352778972317E+02
0.332976687531261E+02
0.341618928459998E+02
0.349944529610436E+02
0.356733705378651E+02
0.359556056988446E+02
0.352236162945832E+02
0.345354687498023E+02
0.336911631325637E+02
0.328141410975914E+02
0.319382735581858E+02
0.310695667664395E+02
0.302092307587239E+02
0.293580581619480E+02
0.285169000803463E+02
0.276867035302415E+02
0.268685239285593E+02
0.260635381821810E+02
0.252730590181010E+02
0.244985504665706E+02
0.237416442910172E+02
0.230041569881624E+02
0.222881067449572E+02
0.215957294211337E+02
0.209294922160623E+02
0.202921031741589E+02
0.196865141010299E+02
0.191159138517084E+02
0.185837084098500E+02
0.180934838629759E+02
0.176489485222113E+02
0.172538513126992E+02
0.169118754382530E+02
0.166265093411232E+02
0.164009009963112E+02
0.162377060400417E+02
0.161389441204994E+02
0.161058798913954E+02
0.161389441204994E+02
0.162377060400417E+02
0.164009009963112E+02
0.166265093411232E+02
0.169118754382530E+02
0.172538513126992E+02
0.176489485222113E+02
0.180934838629759E+02
0.185837084098500E+02
0.191159138517084E+02
0.196865141010299E+02
0.202921031741589E+02
0.209294922160623E+02
0.215957294211337E+02
0.222881067449572E+02
0.230041569881624E+02
0.237416442910172E+02
0.244985504665706E+02
0.252730590181010E+02
0.260635381821810E+02
0.268685239285593E+02
0.276867035302415E+02
0.285169000803463E+02
0.293580581619480E+02
0.302092307587239E+02
0.310695667664395E+02
0.319382735581858E+02
0.328141410975914E+02
0.336911631325637E+02
0.345354687498023E+02
0.352236162945832E+02
0.355096104187395E+02
0.347974697912605E+02
0.341003384987764E+02
0.332445830162107E+02
0.323550590981280E+02
0.314659947520976E+02
0.305834230105876E+02
0.297085222220022E+02
0.288420467636066E+02
0.279848090210101E+02
0.271377179683010E+02
0.263017927966160E+02
0.254781775223485E+02
0.246681573224832E+02
0.238731766257823E+02
0.230948588841767E+02
0.223350277851347E+02
0.215957294211337E+02
0.208792545809742E+02
0.201881598426930E+02
0.195252855072548E+02
0.188937676104505E+02
0.182970403173355E+02
0.177388240319459E+02
0.172230937341639E+02
0.167540217001059E+02
0.163358893147720E+02
0.159729646568032E+02
0.156693463448347E+02
0.154287798398580E+02
0.152544593693548E+02
0.151488353626070E+02
0.151134515391462E+02
0.151488353626070E+02
0.152544593693548E+02
0.154287798398580E+02
0.156693463448347E+02
0.159729646568032E+02
0.163358893147720E+02
0.167540217001059E+02
0.172230937341639E+02
0.177388240319459E+02
0.182970403173355E+02
0.188937676104505E+02
0.195252855072548E+02
0.201881598426930E+02
0.208792545809742E+02
0.215957294211337E+02
0.223350277851347E+02
0.230948588841767E+02
0.238731766257823E+02
0.246681573224832E+02
0.254781775223485E+02
0.263017927966160E+02
0.271377179683010E+02
0.279848090210101E+02
0.288420467636066E+02
0.297085222220022E+02
0.305834230105876E+02
0.314659947520976E+02
0.323550590981280E+02
0.332445830162107E+02
0.341003384987764E+02
0.347974697912605E+02
0.350871195241484E+02
0.343958335121081E+02
0.336900142962356E+02
0.328231690977754E+02
0.319215115657624E+02
0.310196084613059E+02
0.301235124600183E+02
0.292343642240689E+02
0.283528729821977E+02
0.274798042243169E+02
0.266160192239967E+02
0.257624896074296E+02
0.249203132851452E+02
0.240907326209835E+02
0.232751550145905E+02
0.224751759987836E+02
0.216926048166601E+02
0.209294922160623E+02
0.201881598426930E+02
0.194712300809952E+02
0.187816544327245E+02
0.181227374927495E+02
0.174981522657700E+02
0.169119410220918E+02
0.163684943006468E+02
0.158724994201874E+02
0.154288496011367E+02
0.150425064185988E+02
0.147183127472979E+02
0.144607611930562E+02
0.142737337712341E+02
0.141602401758850E+02
0.141221905828690E+02
0.141602401758850E+02
0.142737337712341E+02
0.144607611930562E+02
0.147183127472979E+02
0.150425064185988E+02
0.154288496011367E+02
0.158724994201874E+02
0.163684943006468E+02
0.169119410220918E+02
0.174981522657700E+02
0.181227374927495E+02
0.187816544327245E+02
0.194712300809952E+02
0.201881598426930E+02
0.209294922160623E+02
0.216926048166601E+02
0.224751759987836E+02
0.232751550145905E+02
0.240907326209835E+02
0.249203132851452E+02
0.257624896074296E+02
0.266160192239967E+02
0.274798042243169E+02
0.283528729821977E+02
0.292343642240689E+02