<?xml version="1.0"?>
<VTKFile type="RectilinearGrid" version="0.1" byte_order="LittleEndian">
<RectilinearGrid WholeExtent="0   63    0   63    0    3">
<Piece Extent="47   63   47   63    0    3">
<Coordinates>
<DataArray Name="x" type="Float32" format="ascii">
0.470000000000000E+01
0.480000000000000E+01
0.490000000000000E+01
0.500000000000000E+01
0.510000000000000E+01
0.520000000000000E+01
0.530000000000000E+01
0.540000000000000E+01
0.550000000000000E+01
0.560000000000000E+01
0.570000000000000E+01
0.580000000000000E+01
0.590000000000000E+01
0.600000000000000E+01
0.610000000000000E+01
0.620000000000000E+01
0.630000000000000E+01
</DataArray>
<DataArray Name="y" type="Float32" format="ascii">
0.470000000000000E+01
0.480000000000000E+01
0.490000000000000E+01
0.500000000000000E+01
0.510000000000000E+01
0.520000000000000E+01
0.530000000000000E+01
0.540000000000000E+01
0.550000000000000E+01
0.560000000000000E+01
0.570000000000000E+01
0.580000000000000E+01
0.590000000000000E+01
0.600000000000000E+01
0.610000000000000E+01
0.620000000000000E+01
0.630000000000000E+01
</DataArray>
<DataArray Name="z" type="Float32" format="ascii">
0.000000000000000E+00
0.100000000000000E+00
0.200000000000000E+00
0.300000000000000E+00
</DataArray>
</Coordinates>
<PointData Scalars="c">
<DataArray type="Float32" Name="c" format="ascii">
0.255740290718990E+02
0.259294658648875E+02
0.262834861669249E+02
0.266327572123549E+02
0.269739596715279E+02
0.273038210091824E+02
0.276191494503454E+02
0.279168681318048E+02
0.281940489741187E+02
0.284479457753062E+02
0.286760260049880E+02
0.288760007686059E+02
0.290458524167954E+02
0.291838592957747E+02
0.292886171708808E+02
0.293590569065769E+02
0.293944580511616E+02
0.259168518266543E+02
0.262673837012039E+02
0.266165485035920E+02
0.269610581670039E+02
0.272976368033322E+02
0.276230536936785E+02
0.279341569140396E+02
0.282279071752847E+02
0.285014114128722E+02
0.287519556274572E+02
0.289770364547886E+02
0.291743909338743E+02
0.293420239476540E+02
0.294782328311140E+02
0.295816286780254E+02
0.296511539287376E+02
0.296860958864722E+02
0.262573694319151E+02
0.266030566768555E+02
0.269474254157507E+02
0.272872317424010E+02
0.276192426961669E+02
0.279402688883212E+02
0.282471977906241E+02
0.285370272663105E+02
0.288068988794637E+02
0.290541304839941E+02
0.292762475703137E+02
0.294710128381077E+02
0.296364534686832E+02
0.297708855909687E+02
0.298729354714703E+02
0.299415570097824E+02
0.299760451863664E+02
0.265922633388444E+02
0.269332122765549E+02
0.272728899712562E+02
0.276080957190168E+02
0.279356385637973E+02
0.282523695668769E+02
0.285552147646727E+02
0.288412083962374E+02
0.291075259369739E+02
0.293515164399033E+02
0.295707336623376E+02
0.297629654458551E+02
0.299262608223740E+02
0.300589543396203E+02
0.301596871354899E+02
0.302274243421393E+02
0.302614684658425E+02
0.269182416943340E+02
0.272546033128442E+02
0.275897392204667E+02
0.279204905491381E+02
0.282437070271588E+02
0.285562789023423E+02
0.288551695786285E+02
0.291374485485491E+02
0.294003241586740E+02
0.296411757095426E+02
0.298575843677542E+02
0.300473623576871E+02
0.302085799050377E+02
0.303395894247778E+02
0.304390464823043E+02
0.305059271079198E+02
0.305395411100698E+02
0.272320734569523E+02
0.275640416512109E+02
0.278948275335613E+02
0.282213123130215E+02
0.285403846995174E+02
0.288489724947168E+02
0.291440749200969E+02
0.294227952657205E+02
0.296823733974621E+02
0.299202176243921E+02
0.301339354038800E+02
0.303213623515260E+02
0.304805890275900E+02
0.306099849918998E+02
0.307082196553644E+02
0.307742795076097E+02
0.308074813656109E+02
0.275306229347066E+02
0.278584323849992E+02
0.281851004150533E+02
0.285075461788248E+02
0.288226953009446E+02
0.291275111523779E+02
0.294190268855954E+02
0.296943778137932E+02
0.299508336725202E+02
0.301858302656596E+02
0.303969999732628E+02
0.305822005880554E+02
0.307395419518385E+02
0.308674098832290E+02
0.309644869242975E+02
0.310297694850711E+02
0.310625810302863E+02
0.278108842894215E+02
0.281348080063454E+02
0.284576283431914E+02
0.287762999154873E+02
0.290877828527617E+02
0.293890737791806E+02
0.296772375743135E+02
0.299494394995926E+02
0.302029772294285E+02
0.304353122891941E+02
0.306441003775580E+02
0.308272200397578E+02
0.309827991626647E+02
0.311092387826218E+02
0.312052337331235E+02
0.312697897108234E+02
0.313022364038287E+02
0.280700155142220E+02
0.283903620804973E+02
0.287096401425263E+02
0.290248369677922E+02
0.293329444621657E+02
0.296309898784839E+02
0.299160673240736E+02
0.301853696537476E+02
0.304362202878267E+02
0.306661044576753E+02
0.308726993562499E+02
0.310539026600811E+02
0.312078588932311E+02
0.313329831238236E+02
0.314279815197919E+02
0.314918683419224E+02
0.315239790177830E+02
0.283053713628789E+02
0.286224819026713E+02
0.289385553692526E+02
0.292506085737305E+02
0.295556621777080E+02
0.298507711553635E+02
0.301330560713590E+02
0.303997347619933E+02
0.306481539597162E+02
0.308758203637621E+02
0.310804306344551E+02
0.312598997774777E+02
0.314123873883999E+02
0.315363212477436E+02
0.316304177928777E+02
0.316936990444715E+02
0.317255056307845E+02
0.285145346945681E+02
0.288287796010161E+02
0.291420151729783E+02
0.294512843879655E+02
0.297536333796338E+02
0.300461416812747E+02
0.303259532999720E+02
0.305903082096498E+02
0.308365738036385E+02
0.310622758097875E+02
0.312651281457384E+02
0.314430611805681E+02
0.315942478729019E+02
0.317171272755134E+02
0.318104249324139E+02
0.318731697458741E+02
0.319047069563925E+02
0.286953456964775E+02
0.290071211478414E+02
0.293179110968803E+02
0.296247810732283E+02
0.299247991668515E+02
0.302150660829370E+02
0.304927460401529E+02
0.307550981012090E+02
0.309995074768049E+02
0.312235163062362E+02
0.314248533923521E+02
0.316014623570143E+02
0.317515276870100E+02
0.318734981602293E+02
0.319661071778767E+02
0.320283895799252E+02
0.320596945866170E+02
0.288459284606730E+02
0.291556527550562E+02
0.294644112917927E+02
0.297692883348681E+02
0.300673702155052E+02
0.303557752302356E+02
0.306316843928351E+02
0.308923726296483E+02
0.311352399597784E+02
0.313578421636307E+02
0.315579204175754E+02
0.317334293608484E+02
0.318825630645314E+02
0.320037783922626E+02
0.320958152782672E+02
0.321577134997307E+02
0.321888255861531E+02
0.289647144211557E+02
0.292728241591584E+02
0.295799836490552E+02
0.298832919029440E+02
0.301798496131714E+02
0.304667889268620E+02
0.307413040825330E+02
0.310006824987936E+02
0.312423358569190E+02
0.314638306809650E+02
0.316629178932560E+02
0.318375608113462E+02
0.319859610562185E+02
0.321065818612540E+02
0.321981683074257E+02
0.322597640616031E+02
0.322907242604779E+02
0.290504622018557E+02
0.293574083458982E+02
0.296634154016837E+02
0.299655930109283E+02
0.302610522173270E+02
0.305469351519899E+02
0.308204455868683E+02
0.310788799465148E+02
0.313196583201972E+02
0.315403549781632E+02
0.317387278699427E+02
0.319127465707780E+02
0.320606181458954E+02
0.321808104220707E+02
0.322720721918479E+02
0.323334499272042E+02
0.323643006450818E+02
0.291022734855270E+02
0.294085173239757E+02
0.297138288026789E+02
0.300153239793557E+02
0.303101201460044E+02
0.305953654605429E+02
0.308682694499931E+02
0.311261339757644E+02
0.313663842031956E+02
0.315865990792335E+02
0.317845407961686E+02
0.319581827075160E+02
0.321057351657232E+02
0.322256687711137E+02
0.323167345573689E+02
0.323779806902855E+02
0.324087653221777E+02
0.291196045855669E+02
0.294256136292715E+02
0.297306925614974E+02
0.300319595850162E+02
0.303265340808564E+02
0.306115662219547E+02
0.308842674595385E+02
0.311419414728643E+02
0.313820151245200E+02
0.316020689251947E+02
0.317998664858503E+02
0.319733824233796E+02
0.321208281894261E+02
0.322406753117554E+02
0.323316755734669E+02
0.323928777067614E+02
0.324236402436177E+02
0.255740290718990E+02
0.259294658648875E+02
0.262834861669249E+02
0.266327572123549E+02
0.269739596715279E+02
0.273038210091824E+02
0.276191494503454E+02
0.279168681318048E+02
0.281940489741187E+02
0.284479457753062E+02
0.286760260049880E+02
0.288760007686059E+02
0.290458524167954E+02
0.291838592957747E+02
0.292886171708808E+02
0.293590569065769E+02
0.293944580511616E+02
0.259168518266543E+02
0.262673837012039E+02
0.266165485035920E+02
0.269610581670039E+02
0.272976368033322E+02
0.276230536936785E+02
0.279341569140396E+02
0.282279071752847E+02
0.285014114128722E+02
0.287519556274572E+02
0.289770364547886E+02
0.291743909338743E+02
0.293420239476540E+02
0.294782328311140E+02
0.295816286780254E+02
0.296511539287376E+02
0.296860958864722E+02
0.262573694319151E+02
0.266030566768555E+02
0.269474254157507E+02
0.272872317424010E+02
0.276192426961669E+02
0.279402688883212E+02
0.282471977906241E+02
0.285370272663105E+02
0.288068988794637E+02
0.290541304839941E+02
0.292762475703137E+02
0.294710128381077E+02
0.296364534686832E+02
0.297708855909687E+02
0.298729354714703E+02
0.299415570097824E+02
0.299760451863664E+02
0.265922633388444E+02
0.269332122765549E+02
0.272728899712562E+02
0.276080957190168E+02
0.279356385637973E+02
0.282523695668769E+02
0.285552147646727E+02
0.288412083962374E+02
0.291075259369739E+02
0.293515164399033E+02
0.295707336623376E+02
0.297629654458551E+02
0.299262608223740E+02
0.300589543396203E+02
0.301596871354899E+02
0.302274243421393E+02
0.302614684658425E+02
0.269182416943340E+02
0.272546033128442E+02
0.275897392204667E+02
0.279204905491381E+02
0.282437070271588E+02
0.285562789023423E+02
0.288551695786285E+02
0.291374485485491E+02
0.294003241586740E+02
0.296411757095426E+02
0.298575843677542E+02
0.300473623576871E+02
0.302085799050377E+02
0.303395894247778E+02
0.304390464823043E+02
0.305059271079198E+02
0.305395411100698E+02
0.272320734569523E+02
0.275640416512109E+02
0.278948275335613E+02
0.282213123130215E+02
0.285403846995174E+02
0.288489724947168E+02
0.291440749200969E+02
0.294227952657205E+02
0.296823733974621E+02
0.299202176243921E+02
0.301339354038800E+02
0.303213623515260E+02
0.304805890275900E+02
0.306099849918998E+02
0.307082196553644E+02
0.307742795076097E+02
0.308074813656109E+02
0.275306229347066E+02
0.278584323849992E+02
0.281851004150533E+02
0.285075461788248E+02
0.288226953009446E+02
0.291275111523779E+02
0.294190268855954E+02
0.296943778137932E+02
0.299508336725202E+02
0.301858302656596E+02
0.303969999732628E+02
0.305822005880554E+02
0.307395419518385E+02
0.308674098832290E+02
0.309644869242975E+02
0.310297694850711E+02
0.310625810302863E+02
0.278108842894215E+02
0.281348080063454E+02
0.284576283431914E+02
0.287762999154873E+02
0.290877828527617E+02
0.293890737791806E+02
0.296772375743135E+02
0.299494394995926E+02
0.302029772294285E+02
0.304353122891941E+02
0.306441003775580E+02
0.308272200397578E+02
0.309827991626647E+02
0.311092387826218E+02
0.312052337331235E+02
0.312697897108234E+02
0.313022364038287E+02
0.280700155142220E+02
0.283903620804973E+02
0.287096401425263E+02
0.290248369677922E+02
0.293329444621657E+02
0.296309898784839E+02
0.299160673240736E+02
0.301853696537476E+02
0.304362202878267E+02
0.306661044576753E+02
0.308726993562499E+02
0.310539026600811E+02
0.312078588932311E+02
0.313329831238236E+02
0.314279815197919E+02
0.314918683419224E+02
0.315239790177830E+02
0.283053713628789E+02
0.286224819026713E+02
0.289385553692526E+02
0.292506085737305E+02
0.295556621777080E+02
0.298507711553635E+02
0.301330560713590E+02
0.303997347619933E+02
0.306481539597162E+02
0.308758203637621E+02
0.310804306344551E+02
0.312598997774777E+02
0.314123873883999E+02
0.315363212477436E+02
0.316304177928777E+02
0.316936990444715E+02
0.317255056307845E+02
0.285145346945681E+02
0.288287796010161E+02
0.291420151729783E+02
0.294512843879655E+02
0.297536333796338E+02
0.300461416812747E+02
0.303259532999720E+02
0.305903082096498E+02
0.308365738036385E+02
0.310622758097875E+02
0.312651281457384E+02
0.314430611805681E+02
0.315942478729019E+02
0.317171272755134E+02
0.318104249324139E+02
0.318731697458741E+02
0.319047069563925E+02
0.286953456964775E+02
0.290071211478414E+02
0.293179110968803E+02
0.296247810732283E+02
0.299247991668515E+02
0.302150660829370E+02
0.304927460401529E+02
0.307550981012090E+02
0.309995074768049E+02
0.312235163062362E+02
0.314248533923521E+02
0.316014623570143E+02
0.317515276870100E+02
0.318734981602293E+02
0.319661071778767E+02
0.320283895799252E+02
0.320596945866170E+02
0.288459284606730E+02
0.291556527550562E+02
0.294644112917927E+02
0.297692883348681E+02
0.300673702155052E+02
0.303557752302356E+02
0.306316843928351E+02
0.308923726296483E+02
0.311352399597784E+02
0.313578421636307E+02
0.315579204175754E+02
0.317334293608484E+02
0.318825630645314E+02
0.320037783922626E+02
0.320958152782672E+02
0.321577134997307E+02
0.321888255861531E+02
0.289647144211557E+02
0.292728241591584E+02
0.295799836490552E+02
0.298832919029440E+02
0.301798496131714E+02
0.304667889268620E+02
0.307413040825330E+02
0.310006824987936E+02
0.312423358569190E+02
0.314638306809650E+02
0.316629178932560E+02
0.318375608113462E+02
0.319859610562185E+02
0.321065818612540E+02
0.321981683074257E+02
0.322597640616031E+02
0.322907242604779E+02
0.290504622018557E+02
0.293574083458982E+02
0.296634154016837E+02
0.299655930109283E+02
0.302610522173270E+02
0.305469351519899E+02
0.308204455868683E+02
0.310788799465148E+02
0.313196583201972E+02
0.315403549781632E+02
0.317387278699427E+02
0.319127465707780E+02
0.320606181458954E+02
0.321808104220707E+02
0.322720721918479E+02
0.323334499272042E+02
0.323643006450818E+02
0.291022734855270E+02
0.294085173239757E+02
0.297138288026789E+02
0.300153239793557E+02
0.303101201460044E+02
0.305953654605429E+02
0.308682694499931E+02
0.311261339757644E+02
0.313663842031956E+02
0.315865990792335E+02
0.317845407961686E+02
0.319581827075160E+02
0.321057351657232E+02
0.322256687711137E+02
0.323167345573689E+02
0.323779806902855E+02
0.324087653221777E+02
0.291196045855669E+02
0.294256136292715E+02
0.297306925614974E+02
0.300319595850162E+02
0.303265340808564E+02
0.306115662219547E+02
0.308842674595385E+02
0.311419414728643E+02
0.313820151245200E+02
0.316020689251947E+02
0.317998664858503E+02
0.319733824233796E+02
0.321208281894261E+02
0.322406753117554E+02
0.323316755734669E+02
0.323928777067614E+02
0.324236402436177E+02
0.255740290718990E+02
0.259294658648875E+02
0.262834861669249E+02
0.266327572123549E+02
0.269739596715279E+02
0.273038210091824E+02
0.276191494503454E+02
0.279168681318048E+02
0.281940489741187E+02
0.284479457753062E+02
0.286760260049880E+02
0.288760007686059E+02
0.290458524167954E+02
0.291838592957747E+02
0.292886171708808E+02
0.293590569065769E+02
0.293944580511616E+02
0.259168518266543E+02
0.262673837012039E+02
0.266165485035920E+02
0.269610581670039E+02
0.272976368033322E+02
0.276230536936785E+02
0.279341569140396E+02
0.282279071752847E+02
0.285014114128722E+02
0.287519556274572E+02
0.289770364547886E+02
0.291743909338743E+02
0.293420239476540E+02
0.294782328311140E+02
0.295816286780254E+02
0.296511539287376E+02
0.296860958864722E+02
0.262573694319151E+02
0.266030566768555E+02
0.269474254157507E+02
0.272872317424010E+02
0.276192426961669E+02
0.279402688883212E+02
0.282471977906241E+02
0.285370272663105E+02
0.288068988794637E+02
0.290541304839941E+02
0.292762475703137E+02
0.294710128381077E+02
0.296364534686832E+02
0.297708855909687E+02
0.298729354714703E+02
0.299415570097824E+02
0.299760451863664E+02
0.265922633388444E+02
0.269332122765549E+02
0.272728899712562E+02
0.276080957190168E+02
0.279356385637973E+02
0.282523695668769E+02
0.285552147646727E+02
0.288412083962374E+02
0.291075259369739E+02
0.293515164399033E+02
0.295707336623376E+02
0.297629654458551E+02
0.299262608223740E+02
0.300589543396203E+02
0.301596871354899E+02
0.302274243421393E+02
0.302614684658425E+02
0.269182416943340E+02
0.272546033128442E+02
0.275897392204667E+02
0.279204905491381E+02
0.282437070271588E+02
0.285562789023423E+02
0.288551695786285E+02
0.291374485485491E+02
0.294003241586740E+02
0.296411757095426E+02
0.298575843677542E+02
0.300473623576871E+02
0.302085799050377E+02
0.303395894247778E+02
0.304390464823043E+02
0.305059271079198E+02
0.305395411100698E+02
0.272320734569523E+02
0.275640416512109E+02
0.278948275335613E+02
0.282213123130215E+02
0.285403846995174E+02
0.288489724947168E+02
0.291440749200969E+02
0.294227952657205E+02
0.296823733974621E+02
0.299202176243921E+02
0.301339354038800E+02
0.303213623515260E+02
0.304805890275900E+02
0.306099849918998E+02
0.307082196553644E+02
0.307742795076097E+02
0.308074813656109E+02
0.275306229347066E+02
0.278584323849992E+02
0.281851004150533E+02
0.285075461788248E+02
0.288226953009446E+02
0.291275111523779E+02
0.294190268855954E+02
0.296943778137932E+02
0.299508336725202E+02
0.301858302656596E+02
0.303969999732628E+02
0.305822005880554E+02
0.307395419518385E+02
0.308674098832290E+02
0.309644869242975E+02
0.310297694850711E+02
0.310625810302863E+02
0.278108842894215E+02
0.281348080063454E+02
0.284576283431914E+02
0.287762999154873E+02
0.290877828527617E+02
0.293890737791806E+02
0.296772375743135E+02
0.299494394995926E+02
0.302029772294285E+02
0.304353122891941E+02
0.306441003775580E+02
0.308272200397578E+02
0.309827991626647E+02
0.311092387826218E+02
0.312052337331235E+02
0.312697897108234E+02
0.313022364038287E+02
0.280700155142220E+02
0.283903620804973E+02
0.287096401425263E+02
0.290248369677922E+02
0.293329444621657E+02
0.296309898784839E+02
0.299160673240736E+02
0.301853696537476E+02
0.304362202878267E+02
0.306661044576753E+02
0.308726993562499E+02
0.310539026600811E+02
0.312078588932311E+02
0.313329831238236E+02
0.314279815197919E+02
0.314918683419224E+02
0.315239790177830E+02
0.283053713628789E+02
0.286224819026713E+02
0.289385553692526E+02
0.292506085737305E+02
0.295556621777080E+02
0.298507711553635E+02
0.301330560713590E+02
0.303997347619933E+02
0.306481539597162E+02
0.308758203637621E+02
0.310804306344551E+02
0.312598997774777E+02
0.314123873883999E+02
0.315363212477436E+02
0.316304177928777E+02
0.316936990444715E+02
0.317255056307845E+02
0.285145346945681E+02
0.288287796010161E+02
0.291420151729783E+02
0.294512843879655E+02
0.297536333796338E+02
0.300461416812747E+02
0.303259532999720E+02
0.305903082096498E+02
0.308365738036385E+02
0.310622758097875E+02
0.312651281457384E+02
0.314430611805681E+02
0.315942478729019E+02
0.317171272755134E+02
0.318104249324139E+02
0.318731697458741E+02
0.319047069563925E+02
0.286953456964775E+02
0.290071211478414E+02
0.293179110968803E+02
0.296247810732283E+02
0.299247991668515E+02
0.302150660829370E+02
0.304927460401529E+02
0.307550981012090E+02
0.309995074768049E+02
0.312235163062362E+02
0.314248533923521E+02
0.316014623570143E+02
0.317515276870100E+02
0.318734981602293E+02
0.319661071778767E+02
0.320283895799252E+02
0.320596945866170E+02
0.288459284606730E+02
0.291556527550562E+02
0.294644112917927E+02
0.297692883348681E+02
0.300673702155052E+02
0.303557752302356E+02
0.306316843928351E+02
0.308923726296483E+02
0.311352399597784E+02
0.313578421636307E+02
0.315579204175754E+02
0.317334293608484E+02
0.318825630645314E+02
0.320037783922626E+02
0.320958152782672E+02
0.321577134997307E+02
0.321888255861531E+02
0.289647144211557E+02
0.292728241591584E+02
0.295799836490552E+02
0.298832919029440E+02
0.301798496131714E+02
0.304667889268620E+02
0.307413040825330E+02
0.310006824987936E+02
0.312423358569190E+02
0.314638306809650E+02
0.316629178932560E+02
0.318375608113462E+02
0.319859610562185E+02
0.321065818612540E+02
0.321981683074257E+02
0.322597640616031E+02
0.322907242604779E+02
0.290504622018557E+02
0.293574083458982E+02
0.296634154016837E+02
0.299655930109283E+02
0.302610522173270E+02
0.305469351519899E+02
0.308204455868683E+02
0.310788799465148E+02
0.313196583201972E+02
0.315403549781632E+02
0.317387278699427E+02
0.319127465707780E+02
0.320606181458954E+02
0.321808104220707E+02
0.322720721918479E+02
0.323334499272042E+02
0.323643006450818E+02
0.291022734855270E+02
0.294085173239757E+02
0.297138288026789E+02
0.300153239793557E+02
0.303101201460044E+02
0.305953654605429E+02
0.308682694499931E+02
0.311261339757644E+02
0.313663842031956E+02
0.315865990792335E+02
0.317845407961686E+02
0.319581827075160E+02
0.321057351657232E+02
0.322256687711137E+02
0.323167345573689E+02
0.323779806902855E+02
0.324087653221777E+02
0.291196045855669E+02
0.294256136292715E+02
0.297306925614974E+02
0.300319595850162E+02
0.303265340808564E+02
0.306115662219547E+02
0.308842674595385E+02
0.311419414728643E+02
0.313820151245200E+02
0.316020689251947E+02
0.317998664858503E+02
0.319733824233796E+02
0.321208281894261E+02
0.322406753117554E+02
0.323316755734669E+02
0.323928777067614E+02
0.324236402436177E+02
0.255740290718990E+02
0.259294658648875E+02
0.262834861669249E+02
0.266327572123549E+02
0.269739596715279E+02
0.273038210091824E+02
0.276191494503454E+02
0.279168681318048E+02
0.281940489741187E+02
0.284479457753062E+02
0.286760260049880E+02
0.288760007686059E+02
0.290458524167954E+02
0.291838592957747E+02
0.292886171708808E+02
0.293590569065769E+02
0.293944580511616E+02
0.259168518266543E+02
0.262673837012039E+02
0.266165485035920E+02
0.269610581670039E+02
0.272976368033322E+02
0.276230536936785E+02
0.279341569140396E+02
0.282279071752847E+02
0.285014114128722E+02
0.287519556274572E+02
0.289770364547886E+02
0.291743909338743E+02
0.293420239476540E+02
0.294782328311140E+02
0.295816286780254E+02
0.296511539287376E+02
0.296860958864722E+02
0.262573694319151E+02
0.266030566768555E+02
0.269474254157507E+02
0.272872317424010E+02
0.276192426961669E+02
0.279402688883212E+02
0.282471977906241E+02
0.285370272663105E+02
0.288068988794637E+02
0.290541304839941E+02
0.292762475703137E+02
0.294710128381077E+02
0.296364534686832E+02
0.297708855909687E+02
0.298729354714703E+02
0.299415570097824E+02
0.299760451863664E+02
0.265922633388444E+02
0.269332122765549E+02
0.272728899712562E+02
0.276080957190168E+02
0.279356385637973E+02
0.282523695668769E+02
0.285552147646727E+02
0.288412083962374E+02
0.291075259369739E+02
0.293515164399033E+02
0.295707336623376E+02
0.297629654458551E+02
0.299262608223740E+02
0.300589543396203E+02
0.301596871354899E+02
0.302274243421393E+02
0.302614684658425E+02
0.269182416943340E+02
0.272546033128442E+02
0.275897392204667E+02
0.279204905491381E+02
0.282437070271588E+02
0.285562789023423E+02
0.288551695786285E+02
0.291374485485491E+02
0.294003241586740E+02
0.296411757095426E+02
0.298575843677542E+02
0.300473623576871E+02
0.302085799050377E+02
0.303395894247778E+02
0.304390464823043E+02
0.305059271079198E+02
0.305395411100698E+02
0.272320734569523E+02
0.275640416512109E+02
0.278948275335613E+02
0.282213123130215E+02
0.285403846995174E+02
0.288489724947168E+02
0.291440749200969E+02
0.294227952657205E+02
0.296823733974621E+02
0.299202176243921E+02
0.301339354038800E+02
0.303213623515260E+02
0.304805890275900E+02
0.306099849918998E+02
0.307082196553644E+02
0.307742795076097E+02
0.308074813656109E+02
0.275306229347066E+02
0.278584323849992E+02
0.281851004150533E+02
0.285075461788248E+02
0.288226953009446E+02
0.291275111523779E+02
0.294190268855954E+02
0.296943778137932E+02
0.299508336725202E+02
0.301858302656596E+02
0.303969999732628E+02
0.305822005880554E+02
0.307395419518385E+02
0.308674098832290E+02
0.309644869242975E+02
0.310297694850711E+02
0.310625810302863E+02
0.278108842894215E+02
0.281348080063454E+02
0.284576283431914E+02
0.287762999154873E+02
0.290877828527617E+02
0.293890737791806E+02
0.296772375743135E+02
0.299494394995926E+02
0.302029772294285E+02
0.304353122891941E+02
0.306441003775580E+02
0.308272200397578E+02
0.309827991626647E+02
0.311092387826218E+02
0.312052337331235E+02
0.312697897108234E+02
0.313022364038287E+02
0.280700155142220E+02
0.283903620804973E+02
0.287096401425263E+02
0.290248369677922E+02
0.293329444621657E+02
0.296309898784839E+02
0.299160673240736E+02
0.301853696537476E+02
0.304362202878267E+02
0.306661044576753E+02
0.308726993562499E+02
0.310539026600811E+02
0.312078588932311E+02
0.313329831238236E+02
0.314279815197919E+02
0.314918683419224E+02
0.315239790177830E+02
0.283053713628789E+02
0.286224819026713E+02
0.289385553692526E+02
0.292506085737305E+02
0.295556621777080E+02
0.298507711553635E+02
0.301330560713590E+02
0.303997347619933E+02
0.306481539597162E+02
0.308758203637621E+02
0.310804306344551E+02
0.312598997774777E+02
0.314123873883999E+02
0.315363212477436E+02
0.316304177928777E+02
0.316936990444715E+02
0.317255056307845E+02
0.285145346945681E+02
0.288287796010161E+02
0.291420151729783E+02
0.294512843879655E+02
0.297536333796338E+02
0.300461416812747E+02
0.303259532999720E+02
0.305903082096498E+02
0.308365738036385E+02
0.310622758097875E+02
0.312651281457384E+02
0.314430611805681E+02
0.315942478729019E+02
0.317171272755134E+02
0.318104249324139E+02
0.318731697458741E+02
0.319047069563925E+02
0.286953456964775E+02
0.290071211478414E+02
0.293179110968803E+02
0.296247810732283E+02
0.299247991668515E+02
0.302150660829370E+02
0.304927460401529E+02
0.307550981012090E+02
0.309995074768049E+02
0.312235163062362E+02
0.314248533923521E+02
0.316014623570143E+02
0.317515276870100E+02
0.318734981602293E+02
0.319661071778767E+02
0.320283895799252E+02
0.320596945866170E+02
0.288459284606730E+02
0.291556527550562E+02
0.294644112917927E+02
0.297692883348681E+02
0.300673702155052E+02
0.303557752302356E+02
0.306316843928351E+02
0.308923726296483E+02
0.311352399597784E+02
0.313578421636307E+02
0.315579204175754E+02
0.317334293608484E+02
0.318825630645314E+02
0.320037783922626E+02
0.320958152782672E+02
0.321577134997307E+02
0.321888255861531E+02
0.289647144211557E+02
0.292728241591584E+02
0.295799836490552E+02
0.298832919029440E+02
0.301798496131714E+02
0.304667889268620E+02
0.307413040825330E+02
0.310006824987936E+02
0.312423358569190E+02
0.314638306809650E+02
0.316629178932560E+02
0.318375608113462E+02
0.319859610562185E+02
0.321065818612540E+02
0.321981683074257E+02
0.322597640616031E+02
0.322907242604779E+02
0.290504622018557E+02
0.293574083458982E+02
0.296634154016837E+02
0.299655930109283E+02
0.302610522173270E+02
0.305469351519899E+02
0.308204455868683E+02
0.310788799465148E+02
0.313196583201972E+02
0.315403549781632E+02
0.317387278699427E+02
0.319127465707780E+02
0.320606181458954E+02
0.321808104220707E+02
0.322720721918479E+02
0.323334499272042E+02
0.323643006450818E+02
0.291022734855270E+02
0.294085173239757E+02
0.297138288026789E+02
0.300153239793557E+02
0.303101201460044E+02
0.305953654605429E+02
0.308682694499931E+02
0.311261339757644E+02
0.313663842031956E+02
0.315865990792335E+02
0.317845407961686E+02
0.319581827075160E+02
0.321057351657232E+02
0.322256687711137E+02
0.323167345573689E+02
0.323779806902855E+02
0.324087653221777E+02
0.291196045855669E+02
0.294256136292715E+02
0.297306925614974E+02
0.300319595850162E+02
0.303265340808564E+02
0.306115662219547E+02
0.308842674595385E+02
0.311419414728643E+02
0.313820151245200E+02
0.316020689251947E+02
0.317998664858503E+02
0.319733824233796E+02
0.321208281894261E+02
0.322406753117554E+02
0.323316755734669E+02
0.323928777067614E+02
0.324236402436177E+02
</DataArray>
</PointData>
</Piece>
</RectilinearGrid>
</VTKFile>
