<?xml version="1.0"?>
<VTKFile type="RectilinearGrid" version="0.1" byte_order="LittleEndian">
<RectilinearGrid WholeExtent="0   63    0   63    0    3">
<Piece Extent="47   63   31   47    0    3">
<Coordinates>
<DataArray Name="x" type="Float32" format="ascii">
0.470000000000000E+01
0.480000000000000E+01
0.490000000000000E+01
0.500000000000000E+01
0.510000000000000E+01
0.520000000000000E+01
0.530000000000000E+01
0.540000000000000E+01
0.550000000000000E+01
0.560000000000000E+01
0.570000000000000E+01
0.580000000000000E+01
0.590000000000000E+01
0.600000000000000E+01
0.610000000000000E+01
0.620000000000000E+01
0.630000000000000E+01
</DataArray>
<DataArray Name="y" type="Float32" format="ascii">
0.310000000000000E+01
0.320000000000000E+01
0.330000000000000E+01
0.340000000000000E+01
0.350000000000000E+01
0.360000000000000E+01
0.370000000000000E+01
0.380000000000000E+01
0.390000000000000E+01
0.400000000000000E+01
0.410000000000000E+01
0.420000000000000E+01
0.430000000000000E+01
0.440000000000000E+01
0.450000000000000E+01
0.460000000000000E+01
0.470000000000000E+01
</DataArray>
<DataArray Name="z" type="Float32" format="ascii">
0.000000000000000E+00
0.100000000000000E+00
0.200000000000000E+00
0.300000000000000E+00
</DataArray>
</Coordinates>
<PointData Scalars="c">
<DataArray type="Float32" Name="c" format="ascii">
0.212030138721250E+02
0.217279984220430E+02
0.222514685840739E+02
0.227685077099329E+02
0.232741956805647E+02
0.237636566972738E+02
0.242321093610142E+02
0.246749185213277E+02
0.250876482138220E+02
0.254661148505935E+02
0.258064396927820E+02
0.261050995291872E+02
0.263589744190075E+02
0.265653913376588E+02
0.267221625969567E+02
0.268276179962098E+02
0.268806297970719E+02
0.212229727303804E+02
0.217475553681342E+02
0.222706296246401E+02
0.227872823950801E+02
0.232925969352579E+02
0.237817006313802E+02
0.242498150619504E+02
0.246923078328737E+02
0.251047455042171E+02
0.254829467725639E+02
0.258230349376877E+02
0.261214885770389E+02
0.263751892857062E+02
0.265814653204651E+02
0.267381300189048E+02
0.268435139499431E+02
0.268964898883975E+02
0.212826892318621E+02
0.218060706931526E+02
0.223279617027475E+02
0.228434597471570E+02
0.233476581703721E+02
0.238356938797589E+02
0.243027973558615E+02
0.247443444460403E+02
0.251559092590622E+02
0.255333173231947E+02
0.258726980351527E+02
0.261705353220900E+02
0.264237153731173E+02
0.266295702779262E+02
0.267859164426401E+02
0.268910867385042E+02
0.269439554755364E+02
0.213816836878334E+02
0.219030783137322E+02
0.224230120715452E+02
0.229365999703582E+02
0.234389520470367E+02
0.239252209661851E+02
0.243906519434489E+02
0.248306344701591E+02
0.252407551542580E+02
0.256168508377798E+02
0.259550610159754E+02
0.262518784781395E+02
0.265041970246850E+02
0.267093550963511E+02
0.268651741842473E+02
0.269699909751925E+02
0.270226823235890E+02
0.215191584022271E+02
0.220378029626417E+02
0.225550274519292E+02
0.230659711406274E+02
0.235657671838506E+02
0.240495900740807E+02
0.245127054440403E+02
0.249505216950057E+02
0.253586427625195E+02
0.257329211766548E+02
0.260695104388316E+02
0.263649156323232E+02
0.266160411183538E+02
0.268202341513641E+02
0.269753232802075E+02
0.270796504881727E+02
0.271320961618702E+02
0.216940004017413E+02
0.222091625565608E+02
0.227229560487818E+02
0.232305508840626E+02
0.237271095137369E+02
0.242078341003462E+02
0.246680161668432E+02
0.251030881015254E+02
0.255086758269427E+02
0.258806517860331E+02
0.262151872636384E+02
0.265088029569015E+02
0.267584166431524E+02
0.269613867759939E+02
0.271155508739414E+02
0.272192576525779E+02
0.272713919887713E+02
0.219047853649161E+02
0.224157716332105E+02
0.229254505106816E+02
0.234290288777003E+02
0.239217043478116E+02
0.243987123073862E+02
0.248553753788176E+02
0.252871547754426E+02
0.256897028520495E+02
0.260589159996444E+02
0.263909868980978E+02
0.266824550359031E+02
0.269302543417941E+02
0.271317567555702E+02
0.272848105996785E+02
0.273877727002487E+02
0.274395333444015E+02
0.221497828617485E+02
0.226559459837841E+02
0.231608719728800E+02
0.236598103256786E+02
0.241479993117312E+02
0.246207127504394E+02
0.250733092570468E+02
0.255012834214765E+02
0.259003182189246E+02
0.262663377957069E+02
0.265955596388723E+02
0.268845450340025E+02
0.271302466516038E+02
0.273300520856733E+02
0.274818222028399E+02
0.275839232482575E+02
0.276352517931415E+02
0.224269630524443E+02
0.229277086465325E+02
0.234272953660133E+02
0.239210206090855E+02
0.244041683677716E+02
0.248720557074333E+02
0.253200817657445E+02
0.257437787301153E+02
0.261388640870582E+02
0.265012932813323E+02
0.268273117877952E+02
0.271135054951396E+02
0.273568482371931E+02
0.275547452912758E+02
0.277050716986104E+02
0.278062043502451E+02
0.278570469213079E+02
0.227340050324600E+02
0.232287974679728E+02
0.237225162156065E+02
0.242105113522678E+02
0.246881171821420E+02
0.251506983865001E+02
0.255936987474846E+02
0.260126918997432E+02
0.264034333976207E+02
0.267619132297094E+02
0.270844077777464E+02
0.273675301134656E+02
0.276082774640774E+02
0.278040746615524E+02
0.279528124271246E+02
0.280528794316238E+02
0.281031872122969E+02
0.230683070491268E+02
0.235566744774866E+02
0.240440591978519E+02
0.245258681898763E+02
0.249974901395451E+02
0.254543412297349E+02
0.258919135625622E+02
0.263058256620433E+02
0.266918743387391E+02
0.270460870418933E+02
0.273647736898710E+02
0.276445768667202E+02
0.278825192103532E+02
0.280760468030713E+02
0.282230674121721E+02
0.283219825183418E+02
0.283717122102958E+02
0.234269988499402E+02
0.239085373561398E+02
0.243891887524631E+02
0.248644205544856E+02
0.253296793427943E+02
0.257804361678031E+02
0.262122346466195E+02
0.266207411950049E+02
0.270017966699238E+02
0.273514685417564E+02
0.276661025806740E+02
0.279423729391162E+02
0.281773294506191E+02
0.283684409512246E+02
0.285136334675245E+02
0.286113222061361E+02
0.286604364209005E+02
0.238069564503369E+02
0.242813333076989E+02
0.247549220799847E+02
0.252232538306689E+02
0.256818359608300E+02
0.261261972050592E+02
0.265519353812920E+02
0.269547673320920E+02
0.273305803266642E+02
0.276754840362107E+02
0.279858620608059E+02
0.282584218838554E+02
0.284902420691702E+02
0.286788155024432E+02
0.288220875175588E+02
0.289184878396992E+02
0.289669554194362E+02
0.242048196252007E+02
0.246717756548752E+02
0.251380448646849E+02
0.255992242339094E+02
0.260508842998132E+02
0.264886137250872E+02
0.269080666818756E+02
0.273050124844589E+02
0.276753867337158E+02
0.280153430795863E+02
0.283213045734884E+02
0.285900134809854E+02
0.288185783646385E+02
0.290045172345264E+02
0.291457956033684E+02
0.292408583755184E+02
0.292886546420265E+02
0.246170124290043E+02
0.250763634824882E+02
0.255351300608924E+02
0.259889767676404E+02
0.264335389651632E+02
0.268644668981612E+02
0.272774726961272E+02
0.276683796818713E+02
0.280331732431695E+02
0.283680523675454E+02
0.286694808060935E+02
0.289342367310782E+02
0.291594596923551E+02
0.293426936659918E+02
0.294819250287350E+02
0.295756143850709E+02
0.296227213172435E+02
0.250397670302008E+02
0.254914046274595E+02
0.259425600564755E+02
0.263889665852757E+02
0.268263254538484E+02
0.272503495415896E+02
0.276568099759602E+02
0.280415851039765E+02
0.284007110778877E+02
0.287304331490891E+02
0.290272566304148E+02
0.292879963862563E+02
0.295098236509447E+02
0.296903089649409E+02
0.298274600594400E+02
0.299197536138404E+02
0.299661599548014E+02
0.254691511027543E+02
0.259130422700246E+02
0.263565524789601E+02
0.267954840333520E+02
0.272256044631212E+02
0.276426897285725E+02
0.280425704264199E+02
0.284211804143505E+02
0.287746071000148E+02
0.290991424828629E+02
0.293913339035429E+02
0.296480333553722E+02
0.298664441540427E+02
0.300441637515956E+02
0.301792215225207E+02
0.302701104443931E+02
0.303158117403439E+02
0.212030138721250E+02
0.217279984220430E+02
0.222514685840739E+02
0.227685077099329E+02
0.232741956805647E+02
0.237636566972738E+02
0.242321093610142E+02
0.246749185213277E+02
0.250876482138220E+02
0.254661148505935E+02
0.258064396927820E+02
0.261050995291872E+02
0.263589744190075E+02
0.265653913376588E+02
0.267221625969567E+02
0.268276179962098E+02
0.268806297970719E+02
0.212229727303804E+02
0.217475553681342E+02
0.222706296246401E+02
0.227872823950801E+02
0.232925969352579E+02
0.237817006313802E+02
0.242498150619504E+02
0.246923078328737E+02
0.251047455042171E+02
0.254829467725639E+02
0.258230349376877E+02
0.261214885770389E+02
0.263751892857062E+02
0.265814653204651E+02
0.267381300189048E+02
0.268435139499431E+02
0.268964898883975E+02
0.212826892318621E+02
0.218060706931526E+02
0.223279617027475E+02
0.228434597471570E+02
0.233476581703721E+02
0.238356938797589E+02
0.243027973558615E+02
0.247443444460403E+02
0.251559092590622E+02
0.255333173231947E+02
0.258726980351527E+02
0.261705353220900E+02
0.264237153731173E+02
0.266295702779262E+02
0.267859164426401E+02
0.268910867385042E+02
0.269439554755364E+02
0.213816836878334E+02
0.219030783137322E+02
0.224230120715452E+02
0.229365999703582E+02
0.234389520470367E+02
0.239252209661851E+02
0.243906519434489E+02
0.248306344701591E+02
0.252407551542580E+02
0.256168508377798E+02
0.259550610159754E+02
0.262518784781395E+02
0.265041970246850E+02
0.267093550963511E+02
0.268651741842473E+02
0.269699909751925E+02
0.270226823235890E+02
0.215191584022271E+02
0.220378029626417E+02
0.225550274519292E+02
0.230659711406274E+02
0.235657671838506E+02
0.240495900740807E+02
0.245127054440403E+02
0.249505216950057E+02
0.253586427625195E+02
0.257329211766548E+02
0.260695104388316E+02
0.263649156323232E+02
0.266160411183538E+02
0.268202341513641E+02
0.269753232802075E+02
0.270796504881727E+02
0.271320961618702E+02
0.216940004017413E+02
0.222091625565608E+02
0.227229560487818E+02
0.232305508840626E+02
0.237271095137369E+02
0.242078341003462E+02
0.246680161668432E+02
0.251030881015254E+02
0.255086758269427E+02
0.258806517860331E+02
0.262151872636384E+02
0.265088029569015E+02
0.267584166431524E+02
0.269613867759939E+02
0.271155508739414E+02
0.272192576525779E+02
0.272713919887713E+02
0.219047853649161E+02
0.224157716332105E+02
0.229254505106816E+02
0.234290288777003E+02
0.239217043478116E+02
0.243987123073862E+02
0.248553753788176E+02
0.252871547754426E+02
0.256897028520495E+02
0.260589159996444E+02
0.263909868980978E+02
0.266824550359031E+02
0.269302543417941E+02
0.271317567555702E+02
0.272848105996785E+02
0.273877727002487E+02
0.274395333444015E+02
0.221497828617485E+02
0.226559459837841E+02
0.231608719728800E+02
0.236598103256786E+02
0.241479993117312E+02
0.246207127504394E+02
0.250733092570468E+02
0.255012834214765E+02
0.259003182189246E+02
0.262663377957069E+02
0.265955596388723E+02
0.268845450340025E+02
0.271302466516038E+02
0.273300520856733E+02
0.274818222028399E+02
0.275839232482575E+02
0.276352517931415E+02
0.224269630524443E+02
0.229277086465325E+02
0.234272953660133E+02
0.239210206090855E+02
0.244041683677716E+02
0.248720557074333E+02
0.253200817657445E+02
0.257437787301153E+02
0.261388640870582E+02
0.265012932813323E+02
0.268273117877952E+02
0.271135054951396E+02
0.273568482371931E+02
0.275547452912758E+02
0.277050716986104E+02
0.278062043502451E+02
0.278570469213079E+02
0.227340050324600E+02
0.232287974679728E+02
0.237225162156065E+02
0.242105113522678E+02
0.246881171821420E+02
0.251506983865001E+02
0.255936987474846E+02
0.260126918997432E+02
0.264034333976207E+02
0.267619132297094E+02
0.270844077777464E+02
0.273675301134656E+02
0.276082774640774E+02
0.278040746615524E+02
0.279528124271246E+02
0.280528794316238E+02
0.281031872122969E+02
0.230683070491268E+02
0.235566744774866E+02
0.240440591978519E+02
0.245258681898763E+02
0.249974901395451E+02
0.254543412297349E+02
0.258919135625622E+02
0.263058256620433E+02
0.266918743387391E+02
0.270460870418933E+02
0.273647736898710E+02
0.276445768667202E+02
0.278825192103532E+02
0.280760468030713E+02
0.282230674121721E+02
0.283219825183418E+02
0.283717122102958E+02
0.234269988499402E+02
0.239085373561398E+02
0.243891887524631E+02
0.248644205544856E+02
0.253296793427943E+02
0.257804361678031E+02
0.262122346466195E+02
0.266207411950049E+02
0.270017966699238E+02
0.273514685417564E+02
0.276661025806740E+02
0.279423729391162E+02
0.281773294506191E+02
0.283684409512246E+02
0.285136334675245E+02
0.286113222061361E+02
0.286604364209005E+02
0.238069564503369E+02
0.242813333076989E+02
0.247549220799847E+02
0.252232538306689E+02
0.256818359608300E+02
0.261261972050592E+02
0.265519353812920E+02
0.269547673320920E+02
0.273305803266642E+02
0.276754840362107E+02
0.279858620608059E+02
0.282584218838554E+02
0.284902420691702E+02
0.286788155024432E+02
0.288220875175588E+02
0.289184878396992E+02
0.289669554194362E+02
0.242048196252007E+02
0.246717756548752E+02
0.251380448646849E+02
0.255992242339094E+02
0.260508842998132E+02
0.264886137250872E+02
0.269080666818756E+02
0.273050124844589E+02
0.276753867337158E+02
0.280153430795863E+02
0.283213045734884E+02
0.285900134809854E+02
0.288185783646385E+02
0.290045172345264E+02
0.291457956033684E+02
0.292408583755184E+02
0.292886546420265E+02
0.246170124290043E+02
0.250763634824882E+02
0.255351300608924E+02
0.259889767676404E+02
0.264335389651632E+02
0.268644668981612E+02
0.272774726961272E+02
0.276683796818713E+02
0.280331732431695E+02
0.283680523675454E+02
0.286694808060935E+02
0.289342367310782E+02
0.291594596923551E+02
0.293426936659918E+02
0.294819250287350E+02
0.295756143850709E+02
0.296227213172435E+02
0.250397670302008E+02
0.254914046274595E+02
0.259425600564755E+02
0.263889665852757E+02
0.268263254538484E+02
0.272503495415896E+02
0.276568099759602E+02
0.280415851039765E+02
0.284007110778877E+02
0.287304331490891E+02
0.290272566304148E+02
0.292879963862563E+02
0.295098236509447E+02
0.296903089649409E+02
0.298274600594400E+02
0.299197536138404E+02
0.299661599548014E+02
0.254691511027543E+02
0.259130422700246E+02
0.263565524789601E+02
0.267954840333520E+02
0.272256044631212E+02
0.276426897285725E+02
0.280425704264199E+02
0.284211804143505E+02
0.287746071000148E+02
0.290991424828629E+02
0.293913339035429E+02
0.296480333553722E+02
0.298664441540427E+02
0.300441637515956E+02
0.301792215225207E+02
0.302701104443931E+02
0.303158117403439E+02
0.212030138721250E+02
0.217279984220430E+02
0.222514685840739E+02
0.227685077099329E+02
0.232741956805647E+02
0.237636566972738E+02
0.242321093610142E+02
0.246749185213277E+02
0.250876482138220E+02
0.254661148505935E+02
0.258064396927820E+02
0.261050995291872E+02
0.263589744190075E+02
0.265653913376588E+02
0.267221625969567E+02
0.268276179962098E+02
0.268806297970719E+02
0.212229727303804E+02
0.217475553681342E+02
0.222706296246401E+02
0.227872823950801E+02
0.232925969352579E+02
0.237817006313802E+02
0.242498150619504E+02
0.246923078328737E+02
0.251047455042171E+02
0.254829467725639E+02
0.258230349376877E+02
0.261214885770389E+02
0.263751892857062E+02
0.265814653204651E+02
0.267381300189048E+02
0.268435139499431E+02
0.268964898883975E+02
0.212826892318621E+02
0.218060706931526E+02
0.223279617027475E+02
0.228434597471570E+02
0.233476581703721E+02
0.238356938797589E+02
0.243027973558615E+02
0.247443444460403E+02
0.251559092590622E+02
0.255333173231947E+02
0.258726980351527E+02
0.261705353220900E+02
0.264237153731173E+02
0.266295702779262E+02
0.267859164426401E+02
0.268910867385042E+02
0.269439554755364E+02
0.213816836878334E+02
0.219030783137322E+02
0.224230120715452E+02
0.229365999703582E+02
0.234389520470367E+02
0.239252209661851E+02
0.243906519434489E+02
0.248306344701591E+02
0.252407551542580E+02
0.256168508377798E+02
0.259550610159754E+02
0.262518784781395E+02
0.265041970246850E+02
0.267093550963511E+02
0.268651741842473E+02
0.269699909751925E+02
0.270226823235890E+02
0.215191584022271E+02
0.220378029626417E+02
0.225550274519292E+02
0.230659711406274E+02
0.235657671838506E+02
0.240495900740807E+02
0.245127054440403E+02
0.249505216950057E+02
0.253586427625195E+02
0.257329211766548E+02
0.260695104388316E+02
0.263649156323232E+02
0.266160411183538E+02
0.268202341513641E+02
0.269753232802075E+02
0.270796504881727E+02
0.271320961618702E+02
0.216940004017413E+02
0.222091625565608E+02
0.227229560487818E+02
0.232305508840626E+02
0.237271095137369E+02
0.242078341003462E+02
0.246680161668432E+02
0.251030881015254E+02
0.255086758269427E+02
0.258806517860331E+02
0.262151872636384E+02
0.265088029569015E+02
0.267584166431524E+02
0.269613867759939E+02
0.271155508739414E+02
0.272192576525779E+02
0.272713919887713E+02
0.219047853649161E+02
0.224157716332105E+02
0.229254505106816E+02
0.234290288777003E+02
0.239217043478116E+02
0.243987123073862E+02
0.248553753788176E+02
0.252871547754426E+02
0.256897028520495E+02
0.260589159996444E+02
0.263909868980978E+02
0.266824550359031E+02
0.269302543417941E+02
0.271317567555702E+02
0.272848105996785E+02
0.273877727002487E+02
0.274395333444015E+02
0.221497828617485E+02
0.226559459837841E+02
0.231608719728800E+02
0.236598103256786E+02
0.241479993117312E+02
0.246207127504394E+02
0.250733092570468E+02
0.255012834214765E+02
0.259003182189246E+02
0.262663377957069E+02
0.265955596388723E+02
0.268845450340025E+02
0.271302466516038E+02
0.273300520856733E+02
0.274818222028399E+02
0.275839232482575E+02
0.276352517931415E+02
0.224269630524443E+02
0.229277086465325E+02
0.234272953660133E+02
0.239210206090855E+02
0.244041683677716E+02
0.248720557074333E+02
0.253200817657445E+02
0.257437787301153E+02
0.261388640870582E+02
0.265012932813323E+02
0.268273117877952E+02
0.271135054951396E+02
0.273568482371931E+02
0.275547452912758E+02
0.277050716986104E+02
0.278062043502451E+02
0.278570469213079E+02
0.227340050324600E+02
0.232287974679728E+02
0.237225162156065E+02
0.242105113522678E+02
0.246881171821420E+02
0.251506983865001E+02
0.255936987474846E+02
0.260126918997432E+02
0.264034333976207E+02
0.267619132297094E+02
0.270844077777464E+02
0.273675301134656E+02
0.276082774640774E+02
0.278040746615524E+02
0.279528124271246E+02
0.280528794316238E+02
0.281031872122969E+02
0.230683070491268E+02
0.235566744774866E+02
0.240440591978519E+02
0.245258681898763E+02
0.249974901395451E+02
0.254543412297349E+02
0.258919135625622E+02
0.263058256620433E+02
0.266918743387391E+02
0.270460870418933E+02
0.273647736898710E+02
0.276445768667202E+02
0.278825192103532E+02
0.280760468030713E+02
0.282230674121721E+02
0.283219825183418E+02
0.283717122102958E+02
0.234269988499402E+02
0.239085373561398E+02
0.243891887524631E+02
0.248644205544856E+02
0.253296793427943E+02
0.257804361678031E+02
0.262122346466195E+02
0.266207411950049E+02
0.270017966699238E+02
0.273514685417564E+02
0.276661025806740E+02
0.279423729391162E+02
0.281773294506191E+02
0.283684409512246E+02
0.285136334675245E+02
0.286113222061361E+02
0.286604364209005E+02
0.238069564503369E+02
0.242813333076989E+02
0.247549220799847E+02
0.252232538306689E+02
0.256818359608300E+02
0.261261972050592E+02
0.265519353812920E+02
0.269547673320920E+02
0.273305803266642E+02
0.276754840362107E+02
0.279858620608059E+02
0.282584218838554E+02
0.284902420691702E+02
0.286788155024432E+02
0.288220875175588E+02
0.289184878396992E+02
0.289669554194362E+02
0.242048196252007E+02
0.246717756548752E+02
0.251380448646849E+02
0.255992242339094E+02
0.260508842998132E+02
0.264886137250872E+02
0.269080666818756E+02
0.273050124844589E+02
0.276753867337158E+02
0.280153430795863E+02
0.283213045734884E+02
0.285900134809854E+02
0.288185783646385E+02
0.290045172345264E+02
0.291457956033684E+02
0.292408583755184E+02
0.292886546420265E+02
0.246170124290043E+02
0.250763634824882E+02
0.255351300608924E+02
0.259889767676404E+02
0.264335389651632E+02
0.268644668981612E+02
0.272774726961272E+02
0.276683796818713E+02
0.280331732431695E+02
0.283680523675454E+02
0.286694808060935E+02
0.289342367310782E+02
0.291594596923551E+02
0.293426936659918E+02
0.294819250287350E+02
0.295756143850709E+02
0.296227213172435E+02
0.250397670302008E+02
0.254914046274595E+02
0.259425600564755E+02
0.263889665852757E+02
0.268263254538484E+02
0.272503495415896E+02
0.276568099759602E+02
0.280415851039765E+02
0.284007110778877E+02
0.287304331490891E+02
0.290272566304148E+02
0.292879963862563E+02
0.295098236509447E+02
0.296903089649409E+02
0.298274600594400E+02
0.299197536138404E+02
0.299661599548014E+02
0.254691511027543E+02
0.259130422700246E+02
0.263565524789601E+02
0.267954840333520E+02
0.272256044631212E+02
0.276426897285725E+02
0.280425704264199E+02
0.284211804143505E+02
0.287746071000148E+02
0.290991424828629E+02
0.293913339035429E+02
0.296480333553722E+02
0.298664441540427E+02
0.300441637515956E+02
0.301792215225207E+02
0.302701104443931E+02
0.303158117403439E+02
0.212030138721250E+02
0.217279984220430E+02
0.222514685840739E+02
0.227685077099329E+02
0.232741956805647E+02
0.237636566972738E+02
0.242321093610142E+02
0.246749185213277E+02
0.250876482138220E+02
0.254661148505935E+02
0.258064396927820E+02
0.261050995291872E+02
0.263589744190075E+02
0.265653913376588E+02
0.267221625969567E+02
0.268276179962098E+02
0.268806297970719E+02
0.212229727303804E+02
0.217475553681342E+02
0.222706296246401E+02
0.227872823950801E+02
0.232925969352579E+02
0.237817006313802E+02
0.242498150619504E+02
0.246923078328737E+02
0.251047455042171E+02
0.254829467725639E+02
0.258230349376877E+02
0.261214885770389E+02
0.263751892857062E+02
0.265814653204651E+02
0.267381300189048E+02
0.268435139499431E+02
0.268964898883975E+02
0.212826892318621E+02
0.218060706931526E+02
0.223279617027475E+02
0.228434597471570E+02
0.233476581703721E+02
0.238356938797589E+02
0.243027973558615E+02
0.247443444460403E+02
0.251559092590622E+02
0.255333173231947E+02
0.258726980351527E+02
0.261705353220900E+02
0.264237153731173E+02
0.266295702779262E+02
0.267859164426401E+02
0.268910867385042E+02
0.269439554755364E+02
0.213816836878334E+02
0.219030783137322E+02
0.224230120715452E+02
0.229365999703582E+02
0.234389520470367E+02
0.239252209661851E+02
0.243906519434489E+02
0.248306344701591E+02
0.252407551542580E+02
0.256168508377798E+02
0.259550610159754E+02
0.262518784781395E+02
0.265041970246850E+02
0.267093550963511E+02
0.268651741842473E+02
0.269699909751925E+02
0.270226823235890E+02
0.215191584022271E+02
0.220378029626417E+02
0.225550274519292E+02
0.230659711406274E+02
0.235657671838506E+02
0.240495900740807E+02
0.245127054440403E+02
0.249505216950057E+02
0.253586427625195E+02
0.257329211766548E+02
0.260695104388316E+02
0.263649156323232E+02
0.266160411183538E+02
0.268202341513641E+02
0.269753232802075E+02
0.270796504881727E+02
0.271320961618702E+02
0.216940004017413E+02
0.222091625565608E+02
0.227229560487818E+02
0.232305508840626E+02
0.237271095137369E+02
0.242078341003462E+02
0.246680161668432E+02
0.251030881015254E+02
0.255086758269427E+02
0.258806517860331E+02
0.262151872636384E+02
0.265088029569015E+02
0.267584166431524E+02
0.269613867759939E+02
0.271155508739414E+02
0.272192576525779E+02
0.272713919887713E+02
0.219047853649161E+02
0.224157716332105E+02
0.229254505106816E+02
0.234290288777003E+02
0.239217043478116E+02
0.243987123073862E+02
0.248553753788176E+02
0.252871547754426E+02
0.256897028520495E+02
0.260589159996444E+02
0.263909868980978E+02
0.266824550359031E+02
0.269302543417941E+02
0.271317567555702E+02
0.272848105996785E+02
0.273877727002487E+02
0.274395333444015E+02
0.221497828617485E+02
0.226559459837841E+02
0.231608719728800E+02
0.236598103256786E+02
0.241479993117312E+02
0.246207127504394E+02
0.250733092570468E+02
0.255012834214765E+02
0.259003182189246E+02
0.262663377957069E+02
0.265955596388723E+02
0.268845450340025E+02
0.271302466516038E+02
0.273300520856733E+02
0.274818222028399E+02
0.275839232482575E+02
0.276352517931415E+02
0.224269630524443E+02
0.229277086465325E+02
0.234272953660133E+02
0.239210206090855E+02
0.244041683677716E+02
0.248720557074333E+02
0.253200817657445E+02
0.257437787301153E+02
0.261388640870582E+02
0.265012932813323E+02
0.268273117877952E+02
0.271135054951396E+02
0.273568482371931E+02
0.275547452912758E+02
0.277050716986104E+02
0.278062043502451E+02
0.278570469213079E+02
0.227340050324600E+02
0.232287974679728E+02
0.237225162156065E+02
0.242105113522678E+02
0.246881171821420E+02
0.251506983865001E+02
0.255936987474846E+02
0.260126918997432E+02
0.264034333976207E+02
0.267619132297094E+02
0.270844077777464E+02
0.273675301134656E+02
0.276082774640774E+02
0.278040746615524E+02
0.279528124271246E+02
0.280528794316238E+02
0.281031872122969E+02
0.230683070491268E+02
0.235566744774866E+02
0.240440591978519E+02
0.245258681898763E+02
0.249974901395451E+02
0.254543412297349E+02
0.258919135625622E+02
0.263058256620433E+02
0.266918743387391E+02
0.270460870418933E+02
0.273647736898710E+02
0.276445768667202E+02
0.278825192103532E+02
0.280760468030713E+02
0.282230674121721E+02
0.283219825183418E+02
0.283717122102958E+02
0.234269988499402E+02
0.239085373561398E+02
0.243891887524631E+02
0.248644205544856E+02
0.253296793427943E+02
0.257804361678031E+02
0.262122346466195E+02
0.266207411950049E+02
0.270017966699238E+02
0.273514685417564E+02
0.276661025806740E+02
0.279423729391162E+02
0.281773294506191E+02
0.283684409512246E+02
0.285136334675245E+02
0.286113222061361E+02
0.286604364209005E+02
0.238069564503369E+02
0.242813333076989E+02
0.247549220799847E+02
0.252232538306689E+02
0.256818359608300E+02
0.261261972050592E+02
0.265519353812920E+02
0.269547673320920E+02
0.273305803266642E+02
0.276754840362107E+02
0.279858620608059E+02
0.282584218838554E+02
0.284902420691702E+02
0.286788155024432E+02
0.288220875175588E+02
0.289184878396992E+02
0.289669554194362E+02
0.242048196252007E+02
0.246717756548752E+02
0.251380448646849E+02
0.255992242339094E+02
0.260508842998132E+02
0.264886137250872E+02
0.269080666818756E+02
0.273050124844589E+02
0.276753867337158E+02
0.280153430795863E+02
0.283213045734884E+02
0.285900134809854E+02
0.288185783646385E+02
0.290045172345264E+02
0.291457956033684E+02
0.292408583755184E+02
0.292886546420265E+02
0.246170124290043E+02
0.250763634824882E+02
0.255351300608924E+02
0.259889767676404E+02
0.264335389651632E+02
0.268644668981612E+02
0.272774726961272E+02
0.276683796818713E+02
0.280331732431695E+02
0.283680523675454E+02
0.286694808060935E+02
0.289342367310782E+02
0.291594596923551E+02
0.293426936659918E+02
0.294819250287350E+02
0.295756143850709E+02
0.296227213172435E+02
0.250397670302008E+02
0.254914046274595E+02
0.259425600564755E+02
0.263889665852757E+02
0.268263254538484E+02
0.272503495415896E+02
0.276568099759602E+02
0.280415851039765E+02
0.284007110778877E+02
0.287304331490891E+02
0.290272566304148E+02
0.292879963862563E+02
0.295098236509447E+02
0.296903089649409E+02
0.298274600594400E+02
0.299197536138404E+02
0.299661599548014E+02
0.254691511027543E+02
0.259130422700246E+02
0.263565524789601E+02
0.267954840333520E+02
0.272256044631212E+02
0.276426897285725E+02
0.280425704264199E+02
0.284211804143505E+02
0.287746071000148E+02
0.290991424828629E+02
0.293913339035429E+02
0.296480333553722E+02
0.298664441540427E+02
0.300441637515956E+02
0.301792215225207E+02
0.302701104443931E+02
0.303158117403439E+02
</DataArray>
</PointData>
</Piece>
</RectilinearGrid>
</VTKFile>
