<?xml version="1.0"?>
<VTKFile type="RectilinearGrid" version="0.1" byte_order="LittleEndian">
<RectilinearGrid WholeExtent="0   63    0   63    0    3">
<Piece Extent="15   31   31   47    0    3">
<Coordinates>
<DataArray Name="x" type="Float32" format="ascii">
0.150000000000000E+01
0.160000000000000E+01
0.170000000000000E+01
0.180000000000000E+01
0.190000000000000E+01
0.200000000000000E+01
0.210000000000000E+01
0.220000000000000E+01
0.230000000000000E+01
0.240000000000000E+01
0.250000000000000E+01
0.260000000000000E+01
0.270000000000000E+01
0.280000000000000E+01
0.290000000000000E+01
0.300000000000000E+01
0.310000000000000E+01
</DataArray>
<DataArray Name="y" type="Float32" format="ascii">
0.310000000000000E+01
0.320000000000000E+01
0.330000000000000E+01
0.340000000000000E+01
0.350000000000000E+01
0.360000000000000E+01
0.370000000000000E+01
0.380000000000000E+01
0.390000000000000E+01
0.400000000000000E+01
0.410000000000000E+01
0.420000000000000E+01
0.430000000000000E+01
0.440000000000000E+01
0.450000000000000E+01
0.460000000000000E+01
0.470000000000000E+01
</DataArray>
<DataArray Name="z" type="Float32" format="ascii">
0.000000000000000E+00
0.100000000000000E+00
0.200000000000000E+00
0.300000000000000E+00
</DataArray>
</Coordinates>
<PointData Scalars="c">
<DataArray type="Float32" Name="c" format="ascii">
0.210354603201311E+02
0.205373817308203E+02
0.200448744182215E+02
0.195627362464187E+02
0.190956153755182E+02
0.186479715400680E+02
0.182240405230871E+02
0.178278017776118E+02
0.174629491224057E+02
0.171328644328301E+02
0.168405942569896E+02
0.165888293056607E+02
0.163798867866203E+02
0.162156955747433E+02
0.160977842245249E+02
0.160272718387011E+02
0.160048618041222E+02
0.210554901812036E+02
0.205578052650054E+02
0.200656914273755E+02
0.195839425481144E+02
0.191172027630549E+02
0.186699277872493E+02
0.182463494370389E+02
0.178504433021821E+02
0.174858994937700E+02
0.171560963878489E+02
0.168640772936529E+02
0.166125299936586E+02
0.164037691247450E+02
0.162397213905136E+02
0.161219136101840E+02
0.160514636166392E+02
0.160290740138555E+02
0.211154190639816E+02
0.206189106538768E+02
0.201279727105450E+02
0.196473872074285E+02
0.191817862552439E+02
0.187356135588982E+02
0.183130890830425E+02
0.179181768752505E+02
0.175545559698200E+02
0.172255942888926E+02
0.169343254661906E+02
0.166834285367110E+02
0.164752104576824E+02
0.163115914469153E+02
0.161940931402703E+02
0.161238295775269E+02
0.161015010241547E+02
0.212147654026527E+02
0.207202028674108E+02
0.202312097223610E+02
0.197525482511852E+02
0.192888306808993E+02
0.188444808597578E+02
0.184236991598304E+02
0.180304305496373E+02
0.176683357553306E+02
0.173407654218098E+02
0.170507371931211E+02
0.168009156491056E+02
0.165935950570411E+02
0.164306849179437E+02
0.163136983031694E+02
0.162437429851721E+02
0.162215153654186E+02
0.213527283872949E+02
0.208608589047431E+02
0.203745571889422E+02
0.198985582788734E+02
0.194374468935570E+02
0.189956194153992E+02
0.185772491202095E+02
0.181862545943064E+02
0.178262712509909E+02
0.175006258504631E+02
0.172123139343430E+02
0.169639801029793E+02
0.167579010852608E+02
0.165959715716967E+02
0.164796927980255E+02
0.164101638757450E+02
0.163880758663634E+02
0.215281907158047E+02
0.210397309121593E+02
0.205568365965228E+02
0.200842083225844E+02
0.196263959992701E+02
0.191877612601423E+02
0.187724431069902E+02
0.183843267617813E+02
0.180270156314346E+02
0.177038062802981E+02
0.174176663111916E+02
0.171712150721551E+02
0.169667071272666E+02
0.168060184511000E+02
0.166906353235538E+02
0.166216459120528E+02
0.165997345301300E+02
0.217397225533917E+02
0.212553506393965E+02
0.207765411506635E+02
0.203079533099455E+02
0.198540953184974E+02
0.194192871873238E+02
0.190076268751282E+02
0.186229596596901E+02
0.182688506378367E+02
0.179485602379535E+02
0.176650226336507E+02
0.174208269626019E+02
0.172182012754190E+02
0.170589991608357E+02
0.169446890114105E+02
0.168763459055943E+02
0.168546460859091E+02
0.219855868110822E+02
0.215059353309422E+02
0.210318422877038E+02
0.205679191965655E+02
0.201186261335041E+02
0.196882350984800E+02
0.192807967222194E+02
0.189001102347806E+02
0.185496965804326E+02
0.182327745502868E+02
0.179522398072976E+02
0.177106466926464E+02
0.175101927229463E+02
0.173527057093397E+02
0.172396334483923E+02
0.171720359478804E+02
0.171505801566359E+02
0.222637458917010E+02
0.217893951831080E+02
0.213205978512028E+02
0.208619118625627E+02
0.204177432977421E+02
0.199923103100882E+02
0.195896104686893E+02
0.192133913941862E+02
0.188671245601589E+02
0.185539821176432E+02
0.182768166018542E+02
0.180381433934796E+02
0.178401258268640E+02
0.176845628592888E+02
0.175728792353788E+02
0.175061180955896E+02
0.174849359862002E+02
0.225718700903758E+02
0.221033425341171E+02
0.216403620804267E+02
0.211874278998977E+02
0.207488868136655E+02
0.203288979043818E+02
0.199314005548216E+02
0.195600858125588E+02
0.192183709405991E+02
0.189093769964621E+02
0.186359092819446E+02
0.184004405178744E+02
0.182050966176292E+02
0.180516449553402E+02
0.179414850456164E+02
0.178756415684171E+02
0.178547596837765E+02
0.229073478747680E+02
0.224451029914035E+02
0.219883975936799E+02
0.215416674517360E+02
0.211091955187173E+02
0.206950772428230E+02
0.203031893526735E+02
0.199371620034639E+02
0.196003541301403E+02
0.192958318340725E+02
0.190263496275383E+02
0.187943343711455E+02
0.186018717582466E+02
0.184506952228413E+02
0.183421771695255E+02
0.182773224428317E+02
0.182567639671525E+02
0.232672983050602E+02
0.228117287348720E+02
0.223616895835440E+02
0.219215492990543E+02
0.214955230529303E+02
0.210876387942527E+02
0.207017068240926E+02
0.203412927663483E+02
0.200096937669269E+02
0.197099177309861E+02
0.194446654038225E+02
0.192163151104753E+02
0.190269099874940E+02
0.188781475630660E+02
0.187713715649659E+02
0.187075658566576E+02
0.186873504186284E+02
0.236485858815054E+02
0.232000142632462E+02
0.227569624700903E+02
0.223237284193302E+02
0.219044563118376E+02
0.215031034606072E+02
0.211234106875254E+02
0.207688761524498E+02
0.204427324318008E+02
0.201479266391110E+02
0.198871033738155E+02
0.196625902927012E+02
0.194763861162407E+02
0.193301509051069E+02
0.192251984666697E+02
0.191624907742928E+02
0.191426343019834E+02
0.240478381237867E+02
0.236065148684792E+02
0.231706992774068E+02
0.227446162628788E+02
0.223323366105609E+02
0.219377446066948E+02
0.215645092813010E+02
0.212160591193357E+02
0.208955600419954E+02
0.206058964330420E+02
0.203496549768152E+02
0.201291110813563E+02
0.199462176773064E+02
0.198025962066431E+02
0.196995296410812E+02
0.196379573951737E+02
0.196184720219049E+02
0.244614661871073E+02
0.240275681259357E+02
0.235991640036298E+02
0.231804039993832E+02
0.227752837940570E+02
0.223876130117349E+02
0.220209873243266E+02
0.216787640589833E+02
0.213640410954209E+02
0.210796388103686E+02
0.208280848161065E+02
0.206116012454393E+02
0.204320943521273E+02
0.202911462195280E+02
0.201900083972332E+02
0.201295973128894E+02
0.201104913321957E+02
0.248856888006163E+02
0.244593186713094E+02
0.240384272405470E+02
0.236270889756976E+02
0.232292235196905E+02
0.228485649541750E+02
0.224886347715007E+02
0.221527183831203E+02
0.218438449364968E+02
0.215647701801898E+02
0.213179621045209E+02
0.211055890892449E+02
0.209295103057726E+02
0.207912681455523E+02
0.206920824745164E+02
0.206328465430749E+02
0.206141244099727E+02
0.253165597709813E+02
0.248977464953381E+02
0.244843952619019E+02
0.240805045920564E+02
0.236899179073474E+02
0.233162936133010E+02
0.229630789360222E+02
0.226334873271866E+02
0.223304791947316E+02
0.220567456816794E+02
0.218146952012757E+02
0.216064424393275E+02
0.214337995502048E+02
0.212982692973601E+02
0.212010399187584E+02
0.211429815293333E+02
0.211246439043824E+02
0.210354603201311E+02
0.205373817308203E+02
0.200448744182215E+02
0.195627362464187E+02
0.190956153755182E+02
0.186479715400680E+02
0.182240405230871E+02
0.178278017776118E+02
0.174629491224057E+02
0.171328644328301E+02
0.168405942569896E+02
0.165888293056607E+02
0.163798867866203E+02
0.162156955747433E+02
0.160977842245249E+02
0.160272718387011E+02
0.160048618041222E+02
0.210554901812036E+02
0.205578052650054E+02
0.200656914273755E+02
0.195839425481144E+02
0.191172027630549E+02
0.186699277872493E+02
0.182463494370389E+02
0.178504433021821E+02
0.174858994937700E+02
0.171560963878489E+02
0.168640772936529E+02
0.166125299936586E+02
0.164037691247450E+02
0.162397213905136E+02
0.161219136101840E+02
0.160514636166392E+02
0.160290740138555E+02
0.211154190639816E+02
0.206189106538768E+02
0.201279727105450E+02
0.196473872074285E+02
0.191817862552439E+02
0.187356135588982E+02
0.183130890830425E+02
0.179181768752505E+02
0.175545559698200E+02
0.172255942888926E+02
0.169343254661906E+02
0.166834285367110E+02
0.164752104576824E+02
0.163115914469153E+02
0.161940931402703E+02
0.161238295775269E+02
0.161015010241547E+02
0.212147654026527E+02
0.207202028674108E+02
0.202312097223610E+02
0.197525482511852E+02
0.192888306808993E+02
0.188444808597578E+02
0.184236991598304E+02
0.180304305496373E+02
0.176683357553306E+02
0.173407654218098E+02
0.170507371931211E+02
0.168009156491056E+02
0.165935950570411E+02
0.164306849179437E+02
0.163136983031694E+02
0.162437429851721E+02
0.162215153654186E+02
0.213527283872949E+02
0.208608589047431E+02
0.203745571889422E+02
0.198985582788734E+02
0.194374468935570E+02
0.189956194153992E+02
0.185772491202095E+02
0.181862545943064E+02
0.178262712509909E+02
0.175006258504631E+02
0.172123139343430E+02
0.169639801029793E+02
0.167579010852608E+02
0.165959715716967E+02
0.164796927980255E+02
0.164101638757450E+02
0.163880758663634E+02
0.215281907158047E+02
0.210397309121593E+02
0.205568365965228E+02
0.200842083225844E+02
0.196263959992701E+02
0.191877612601423E+02
0.187724431069902E+02
0.183843267617813E+02
0.180270156314346E+02
0.177038062802981E+02
0.174176663111916E+02
0.171712150721551E+02
0.169667071272666E+02
0.168060184511000E+02
0.166906353235538E+02
0.166216459120528E+02
0.165997345301300E+02
0.217397225533917E+02
0.212553506393965E+02
0.207765411506635E+02
0.203079533099455E+02
0.198540953184974E+02
0.194192871873238E+02
0.190076268751282E+02
0.186229596596901E+02
0.182688506378367E+02
0.179485602379535E+02
0.176650226336507E+02
0.174208269626019E+02
0.172182012754190E+02
0.170589991608357E+02
0.169446890114105E+02
0.168763459055943E+02
0.168546460859091E+02
0.219855868110822E+02
0.215059353309422E+02
0.210318422877038E+02
0.205679191965655E+02
0.201186261335041E+02
0.196882350984800E+02
0.192807967222194E+02
0.189001102347806E+02
0.185496965804326E+02
0.182327745502868E+02
0.179522398072976E+02
0.177106466926464E+02
0.175101927229463E+02
0.173527057093397E+02
0.172396334483923E+02
0.171720359478804E+02
0.171505801566359E+02
0.222637458917010E+02
0.217893951831080E+02
0.213205978512028E+02
0.208619118625627E+02
0.204177432977421E+02
0.199923103100882E+02
0.195896104686893E+02
0.192133913941862E+02
0.188671245601589E+02
0.185539821176432E+02
0.182768166018542E+02
0.180381433934796E+02
0.178401258268640E+02
0.176845628592888E+02
0.175728792353788E+02
0.175061180955896E+02
0.174849359862002E+02
0.225718700903758E+02
0.221033425341171E+02
0.216403620804267E+02
0.211874278998977E+02
0.207488868136655E+02
0.203288979043818E+02
0.199314005548216E+02
0.195600858125588E+02
0.192183709405991E+02
0.189093769964621E+02
0.186359092819446E+02
0.184004405178744E+02
0.182050966176292E+02
0.180516449553402E+02
0.179414850456164E+02
0.178756415684171E+02
0.178547596837765E+02
0.229073478747680E+02
0.224451029914035E+02
0.219883975936799E+02
0.215416674517360E+02
0.211091955187173E+02
0.206950772428230E+02
0.203031893526735E+02
0.199371620034639E+02
0.196003541301403E+02
0.192958318340725E+02
0.190263496275383E+02
0.187943343711455E+02
0.186018717582466E+02
0.184506952228413E+02
0.183421771695255E+02
0.182773224428317E+02
0.182567639671525E+02
0.232672983050602E+02
0.228117287348720E+02
0.223616895835440E+02
0.219215492990543E+02
0.214955230529303E+02
0.210876387942527E+02
0.207017068240926E+02
0.203412927663483E+02
0.200096937669269E+02
0.197099177309861E+02
0.194446654038225E+02
0.192163151104753E+02
0.190269099874940E+02
0.188781475630660E+02
0.187713715649659E+02
0.187075658566576E+02
0.186873504186284E+02
0.236485858815054E+02
0.232000142632462E+02
0.227569624700903E+02
0.223237284193302E+02
0.219044563118376E+02
0.215031034606072E+02
0.211234106875254E+02
0.207688761524498E+02
0.204427324318008E+02
0.201479266391110E+02
0.198871033738155E+02
0.196625902927012E+02
0.194763861162407E+02
0.193301509051069E+02
0.192251984666697E+02
0.191624907742928E+02
0.191426343019834E+02
0.240478381237867E+02
0.236065148684792E+02
0.231706992774068E+02
0.227446162628788E+02
0.223323366105609E+02
0.219377446066948E+02
0.215645092813010E+02
0.212160591193357E+02
0.208955600419954E+02
0.206058964330420E+02
0.203496549768152E+02
0.201291110813563E+02
0.199462176773064E+02
0.198025962066431E+02
0.196995296410812E+02
0.196379573951737E+02
0.196184720219049E+02
0.244614661871073E+02
0.240275681259357E+02
0.235991640036298E+02
0.231804039993832E+02
0.227752837940570E+02
0.223876130117349E+02
0.220209873243266E+02
0.216787640589833E+02
0.213640410954209E+02
0.210796388103686E+02
0.208280848161065E+02
0.206116012454393E+02
0.204320943521273E+02
0.202911462195280E+02
0.201900083972332E+02
0.201295973128894E+02
0.201104913321957E+02
0.248856888006163E+02
0.244593186713094E+02
0.240384272405470E+02
0.236270889756976E+02
0.232292235196905E+02
0.228485649541750E+02
0.224886347715007E+02
0.221527183831203E+02
0.218438449364968E+02
0.215647701801898E+02
0.213179621045209E+02
0.211055890892449E+02
0.209295103057726E+02
0.207912681455523E+02
0.206920824745164E+02
0.206328465430749E+02
0.206141244099727E+02
0.253165597709813E+02
0.248977464953381E+02
0.244843952619019E+02
0.240805045920564E+02
0.236899179073474E+02
0.233162936133010E+02
0.229630789360222E+02
0.226334873271866E+02
0.223304791947316E+02
0.220567456816794E+02
0.218146952012757E+02
0.216064424393275E+02
0.214337995502048E+02
0.212982692973601E+02
0.212010399187584E+02
0.211429815293333E+02
0.211246439043824E+02
0.210354603201311E+02
0.205373817308203E+02
0.200448744182215E+02
0.195627362464187E+02
0.190956153755182E+02
0.186479715400680E+02
0.182240405230871E+02
0.178278017776118E+02
0.174629491224057E+02
0.171328644328301E+02
0.168405942569896E+02
0.165888293056607E+02
0.163798867866203E+02
0.162156955747433E+02
0.160977842245249E+02
0.160272718387011E+02
0.160048618041222E+02
0.210554901812036E+02
0.205578052650054E+02
0.200656914273755E+02
0.195839425481144E+02
0.191172027630549E+02
0.186699277872493E+02
0.182463494370389E+02
0.178504433021821E+02
0.174858994937700E+02
0.171560963878489E+02
0.168640772936529E+02
0.166125299936586E+02
0.164037691247450E+02
0.162397213905136E+02
0.161219136101840E+02
0.160514636166392E+02
0.160290740138555E+02
0.211154190639816E+02
0.206189106538768E+02
0.201279727105450E+02
0.196473872074285E+02
0.191817862552439E+02
0.187356135588982E+02
0.183130890830425E+02
0.179181768752505E+02
0.175545559698200E+02
0.172255942888926E+02
0.169343254661906E+02
0.166834285367110E+02
0.164752104576824E+02
0.163115914469153E+02
0.161940931402703E+02
0.161238295775269E+02
0.161015010241547E+02
0.212147654026527E+02
0.207202028674108E+02
0.202312097223610E+02
0.197525482511852E+02
0.192888306808993E+02
0.188444808597578E+02
0.184236991598304E+02
0.180304305496373E+02
0.176683357553306E+02
0.173407654218098E+02
0.170507371931211E+02
0.168009156491056E+02
0.165935950570411E+02
0.164306849179437E+02
0.163136983031694E+02
0.162437429851721E+02
0.162215153654186E+02
0.213527283872949E+02
0.208608589047431E+02
0.203745571889422E+02
0.198985582788734E+02
0.194374468935570E+02
0.189956194153992E+02
0.185772491202095E+02
0.181862545943064E+02
0.178262712509909E+02
0.175006258504631E+02
0.172123139343430E+02
0.169639801029793E+02
0.167579010852608E+02
0.165959715716967E+02
0.164796927980255E+02
0.164101638757450E+02
0.163880758663634E+02
0.215281907158047E+02
0.210397309121593E+02
0.205568365965228E+02
0.200842083225844E+02
0.196263959992701E+02
0.191877612601423E+02
0.187724431069902E+02
0.183843267617813E+02
0.180270156314346E+02
0.177038062802981E+02
0.174176663111916E+02
0.171712150721551E+02
0.169667071272666E+02
0.168060184511000E+02
0.166906353235538E+02
0.166216459120528E+02
0.165997345301300E+02
0.217397225533917E+02
0.212553506393965E+02
0.207765411506635E+02
0.203079533099455E+02
0.198540953184974E+02
0.194192871873238E+02
0.190076268751282E+02
0.186229596596901E+02
0.182688506378367E+02
0.179485602379535E+02
0.176650226336507E+02
0.174208269626019E+02
0.172182012754190E+02
0.170589991608357E+02
0.169446890114105E+02
0.168763459055943E+02
0.168546460859091E+02
0.219855868110822E+02
0.215059353309422E+02
0.210318422877038E+02
0.205679191965655E+02
0.201186261335041E+02
0.196882350984800E+02
0.192807967222194E+02
0.189001102347806E+02
0.185496965804326E+02
0.182327745502868E+02
0.179522398072976E+02
0.177106466926464E+02
0.175101927229463E+02
0.173527057093397E+02
0.172396334483923E+02
0.171720359478804E+02
0.171505801566359E+02
0.222637458917010E+02
0.217893951831080E+02
0.213205978512028E+02
0.208619118625627E+02
0.204177432977421E+02
0.199923103100882E+02
0.195896104686893E+02
0.192133913941862E+02
0.188671245601589E+02
0.185539821176432E+02
0.182768166018542E+02
0.180381433934796E+02
0.178401258268640E+02
0.176845628592888E+02
0.175728792353788E+02
0.175061180955896E+02
0.174849359862002E+02
0.225718700903758E+02
0.221033425341171E+02
0.216403620804267E+02
0.211874278998977E+02
0.207488868136655E+02
0.203288979043818E+02
0.199314005548216E+02
0.195600858125588E+02
0.192183709405991E+02
0.189093769964621E+02
0.186359092819446E+02
0.184004405178744E+02
0.182050966176292E+02
0.180516449553402E+02
0.179414850456164E+02
0.178756415684171E+02
0.178547596837765E+02
0.229073478747680E+02
0.224451029914035E+02
0.219883975936799E+02
0.215416674517360E+02
0.211091955187173E+02
0.206950772428230E+02
0.203031893526735E+02
0.199371620034639E+02
0.196003541301403E+02
0.192958318340725E+02
0.190263496275383E+02
0.187943343711455E+02
0.186018717582466E+02
0.184506952228413E+02
0.183421771695255E+02
0.182773224428317E+02
0.182567639671525E+02
0.232672983050602E+02
0.228117287348720E+02
0.223616895835440E+02
0.219215492990543E+02
0.214955230529303E+02
0.210876387942527E+02
0.207017068240926E+02
0.203412927663483E+02
0.200096937669269E+02
0.197099177309861E+02
0.194446654038225E+02
0.192163151104753E+02
0.190269099874940E+02
0.188781475630660E+02
0.187713715649659E+02
0.187075658566576E+02
0.186873504186284E+02
0.236485858815054E+02
0.232000142632462E+02
0.227569624700903E+02
0.223237284193302E+02
0.219044563118376E+02
0.215031034606072E+02
0.211234106875254E+02
0.207688761524498E+02
0.204427324318008E+02
0.201479266391110E+02
0.198871033738155E+02
0.196625902927012E+02
0.194763861162407E+02
0.193301509051069E+02
0.192251984666697E+02
0.191624907742928E+02
0.191426343019834E+02
0.240478381237867E+02
0.236065148684792E+02
0.231706992774068E+02
0.227446162628788E+02
0.223323366105609E+02
0.219377446066948E+02
0.215645092813010E+02
0.212160591193357E+02
0.208955600419954E+02
0.206058964330420E+02
0.203496549768152E+02
0.201291110813563E+02
0.199462176773064E+02
0.198025962066431E+02
0.196995296410812E+02
0.196379573951737E+02
0.196184720219049E+02
0.244614661871073E+02
0.240275681259357E+02
0.235991640036298E+02
0.231804039993832E+02
0.227752837940570E+02
0.223876130117349E+02
0.220209873243266E+02
0.216787640589833E+02
0.213640410954209E+02
0.210796388103686E+02
0.208280848161065E+02
0.206116012454393E+02
0.204320943521273E+02
0.202911462195280E+02
0.201900083972332E+02
0.201295973128894E+02
0.201104913321957E+02
0.248856888006163E+02
0.244593186713094E+02
0.240384272405470E+02
0.236270889756976E+02
0.232292235196905E+02
0.228485649541750E+02
0.224886347715007E+02
0.221527183831203E+02
0.218438449364968E+02
0.215647701801898E+02
0.213179621045209E+02
0.211055890892449E+02
0.209295103057726E+02
0.207912681455523E+02
0.206920824745164E+02
0.206328465430749E+02
0.206141244099727E+02
0.253165597709813E+02
0.248977464953381E+02
0.244843952619019E+02
0.240805045920564E+02
0.236899179073474E+02
0.233162936133010E+02
0.229630789360222E+02
0.226334873271866E+02
0.223304791947316E+02
0.220567456816794E+02
0.218146952012757E+02
0.216064424393275E+02
0.214337995502048E+02
0.212982692973601E+02
0.212010399187584E+02
0.211429815293333E+02
0.211246439043824E+02
0.210354603201311E+02
0.205373817308203E+02
0.200448744182215E+02
0.195627362464187E+02
0.190956153755182E+02
0.186479715400680E+02
0.182240405230871E+02
0.178278017776118E+02
0.174629491224057E+02
0.171328644328301E+02
0.168405942569896E+02
0.165888293056607E+02
0.163798867866203E+02
0.162156955747433E+02
0.160977842245249E+02
0.160272718387011E+02
0.160048618041222E+02
0.210554901812036E+02
0.205578052650054E+02
0.200656914273755E+02
0.195839425481144E+02
0.191172027630549E+02
0.186699277872493E+02
0.182463494370389E+02
0.178504433021821E+02
0.174858994937700E+02
0.171560963878489E+02
0.168640772936529E+02
0.166125299936586E+02
0.164037691247450E+02
0.162397213905136E+02
0.161219136101840E+02
0.160514636166392E+02
0.160290740138555E+02
0.211154190639816E+02
0.206189106538768E+02
0.201279727105450E+02
0.196473872074285E+02
0.191817862552439E+02
0.187356135588982E+02
0.183130890830425E+02
0.179181768752505E+02
0.175545559698200E+02
0.172255942888926E+02
0.169343254661906E+02
0.166834285367110E+02
0.164752104576824E+02
0.163115914469153E+02
0.161940931402703E+02
0.161238295775269E+02
0.161015010241547E+02
0.212147654026527E+02
0.207202028674108E+02
0.202312097223610E+02
0.197525482511852E+02
0.192888306808993E+02
0.188444808597578E+02
0.184236991598304E+02
0.180304305496373E+02
0.176683357553306E+02
0.173407654218098E+02
0.170507371931211E+02
0.168009156491056E+02
0.165935950570411E+02
0.164306849179437E+02
0.163136983031694E+02
0.162437429851721E+02
0.162215153654186E+02
0.213527283872949E+02
0.208608589047431E+02
0.203745571889422E+02
0.198985582788734E+02
0.194374468935570E+02
0.189956194153992E+02
0.185772491202095E+02
0.181862545943064E+02
0.178262712509909E+02
0.175006258504631E+02
0.172123139343430E+02
0.169639801029793E+02
0.167579010852608E+02
0.165959715716967E+02
0.164796927980255E+02
0.164101638757450E+02
0.163880758663634E+02
0.215281907158047E+02
0.210397309121593E+02
0.205568365965228E+02
0.200842083225844E+02
0.196263959992701E+02
0.191877612601423E+02
0.187724431069902E+02
0.183843267617813E+02
0.180270156314346E+02
0.177038062802981E+02
0.174176663111916E+02
0.171712150721551E+02
0.169667071272666E+02
0.168060184511000E+02
0.166906353235538E+02
0.166216459120528E+02
0.165997345301300E+02
0.217397225533917E+02
0.212553506393965E+02
0.207765411506635E+02
0.203079533099455E+02
0.198540953184974E+02
0.194192871873238E+02
0.190076268751282E+02
0.186229596596901E+02
0.182688506378367E+02
0.179485602379535E+02
0.176650226336507E+02
0.174208269626019E+02
0.172182012754190E+02
0.170589991608357E+02
0.169446890114105E+02
0.168763459055943E+02
0.168546460859091E+02
0.219855868110822E+02
0.215059353309422E+02
0.210318422877038E+02
0.205679191965655E+02
0.201186261335041E+02
0.196882350984800E+02
0.192807967222194E+02
0.189001102347806E+02
0.185496965804326E+02
0.182327745502868E+02
0.179522398072976E+02
0.177106466926464E+02
0.175101927229463E+02
0.173527057093397E+02
0.172396334483923E+02
0.171720359478804E+02
0.171505801566359E+02
0.222637458917010E+02
0.217893951831080E+02
0.213205978512028E+02
0.208619118625627E+02
0.204177432977421E+02
0.199923103100882E+02
0.195896104686893E+02
0.192133913941862E+02
0.188671245601589E+02
0.185539821176432E+02
0.182768166018542E+02
0.180381433934796E+02
0.178401258268640E+02
0.176845628592888E+02
0.175728792353788E+02
0.175061180955896E+02
0.174849359862002E+02
0.225718700903758E+02
0.221033425341171E+02
0.216403620804267E+02
0.211874278998977E+02
0.207488868136655E+02
0.203288979043818E+02
0.199314005548216E+02
0.195600858125588E+02
0.192183709405991E+02
0.189093769964621E+02
0.186359092819446E+02
0.184004405178744E+02
0.182050966176292E+02
0.180516449553402E+02
0.179414850456164E+02
0.178756415684171E+02
0.178547596837765E+02
0.229073478747680E+02
0.224451029914035E+02
0.219883975936799E+02
0.215416674517360E+02
0.211091955187173E+02
0.206950772428230E+02
0.203031893526735E+02
0.199371620034639E+02
0.196003541301403E+02
0.192958318340725E+02
0.190263496275383E+02
0.187943343711455E+02
0.186018717582466E+02
0.184506952228413E+02
0.183421771695255E+02
0.182773224428317E+02
0.182567639671525E+02
0.232672983050602E+02
0.228117287348720E+02
0.223616895835440E+02
0.219215492990543E+02
0.214955230529303E+02
0.210876387942527E+02
0.207017068240926E+02
0.203412927663483E+02
0.200096937669269E+02
0.197099177309861E+02
0.194446654038225E+02
0.192163151104753E+02
0.190269099874940E+02
0.188781475630660E+02
0.187713715649659E+02
0.187075658566576E+02
0.186873504186284E+02
0.236485858815054E+02
0.232000142632462E+02
0.227569624700903E+02
0.223237284193302E+02
0.219044563118376E+02
0.215031034606072E+02
0.211234106875254E+02
0.207688761524498E+02
0.204427324318008E+02
0.201479266391110E+02
0.198871033738155E+02
0.196625902927012E+02
0.194763861162407E+02
0.193301509051069E+02
0.192251984666697E+02
0.191624907742928E+02
0.191426343019834E+02
0.240478381237867E+02
0.236065148684792E+02
0.231706992774068E+02
0.227446162628788E+02
0.223323366105609E+02
0.219377446066948E+02
0.215645092813010E+02
0.212160591193357E+02
0.208955600419954E+02
0.206058964330420E+02
0.203496549768152E+02
0.201291110813563E+02
0.199462176773064E+02
0.198025962066431E+02
0.196995296410812E+02
0.196379573951737E+02
0.196184720219049E+02
0.244614661871073E+02
0.240275681259357E+02
0.235991640036298E+02
0.231804039993832E+02
0.227752837940570E+02
0.223876130117349E+02
0.220209873243266E+02
0.216787640589833E+02
0.213640410954209E+02
0.210796388103686E+02
0.208280848161065E+02
0.206116012454393E+02
0.204320943521273E+02
0.202911462195280E+02
0.201900083972332E+02
0.201295973128894E+02
0.201104913321957E+02
0.248856888006163E+02
0.244593186713094E+02
0.240384272405470E+02
0.236270889756976E+02
0.232292235196905E+02
0.228485649541750E+02
0.224886347715007E+02
0.221527183831203E+02
0.218438449364968E+02
0.215647701801898E+02
0.213179621045209E+02
0.211055890892449E+02
0.209295103057726E+02
0.207912681455523E+02
0.206920824745164E+02
0.206328465430749E+02
0.206141244099727E+02
0.253165597709813E+02
0.248977464953381E+02
0.244843952619019E+02
0.240805045920564E+02
0.236899179073474E+02
0.233162936133010E+02
0.229630789360222E+02
0.226334873271866E+02
0.223304791947316E+02
0.220567456816794E+02
0.218146952012757E+02
0.216064424393275E+02
0.214337995502048E+02
0.212982692973601E+02
0.212010399187584E+02
0.211429815293333E+02
0.211246439043824E+02
</DataArray>
</PointData>
</Piece>
</RectilinearGrid>
</VTKFile>
