<?xml version="1.0"?>
<VTKFile type="RectilinearGrid" version="0.1" byte_order="LittleEndian">
<RectilinearGrid WholeExtent="0   63    0   63    0    3">
<Piece Extent="47   63   47   63    0    3">
<Coordinates>
<DataArray Name="x" type="Float32" format="ascii">
0.470000000000000E+01
0.480000000000000E+01
0.490000000000000E+01
0.500000000000000E+01
0.510000000000000E+01
0.520000000000000E+01
0.530000000000000E+01
0.540000000000000E+01
0.550000000000000E+01
0.560000000000000E+01
0.570000000000000E+01
0.580000000000000E+01
0.590000000000000E+01
0.600000000000000E+01
0.610000000000000E+01
0.620000000000000E+01
0.630000000000000E+01
</DataArray>
<DataArray Name="y" type="Float32" format="ascii">
0.470000000000000E+01
0.480000000000000E+01
0.490000000000000E+01
0.500000000000000E+01
0.510000000000000E+01
0.520000000000000E+01
0.530000000000000E+01
0.540000000000000E+01
0.550000000000000E+01
0.560000000000000E+01
0.570000000000000E+01
0.580000000000000E+01
0.590000000000000E+01
0.600000000000000E+01
0.610000000000000E+01
0.620000000000000E+01
0.630000000000000E+01
</DataArray>
<DataArray Name="z" type="Float32" format="ascii">
0.000000000000000E+00
0.100000000000000E+00
0.200000000000000E+00
0.300000000000000E+00
</DataArray>
</Coordinates>
<PointData Scalars="c">
<DataArray type="Float32" Name="c" format="ascii">
0.241964942437590E+02
0.248952094802995E+02
0.256136831780212E+02
0.263492630702909E+02
0.270988508634787E+02
0.278585879289697E+02
0.286234617559468E+02
0.293868591584086E+02
0.301401229868742E+02
0.308722023010997E+02
0.315695113119306E+02
0.322161168189327E+02
0.327943457526832E+02
0.332858393682046E+02
0.336729863173783E+02
0.339405642671589E+02
0.340773388599742E+02
0.248948496145584E+02
0.255737906531904E+02
0.262730269355720E+02
0.269899656489157E+02
0.277215586093397E+02
0.284639945683037E+02
0.292123128611333E+02
0.299599640966118E+02
0.306983740072785E+02
0.314165994094750E+02
0.321011902801744E+02
0.327363763197001E+02
0.333046685697849E+02
0.337879023399610E+02
0.341686544628611E+02
0.344318665217709E+02
0.345664257578552E+02
0.256126468471449E+02
0.262723545078614E+02
0.269527956859079E+02
0.276514445540588E+02
0.283653114134461E+02
0.290906412451448E+02
0.298225343264069E+02
0.305545142873484E+02
0.312780990597348E+02
0.319824626152818E+02
0.326543001510972E+02
0.332780136876459E+02
0.338363075740733E+02
0.343112198460579E+02
0.346855232635952E+02
0.349443296927707E+02
0.350766525177510E+02
0.263470015506030E+02
0.269880791963047E+02
0.276502377364377E+02
0.283310237699022E+02
0.290275125547270E+02
0.297360124402795E+02
0.304516921999712E+02
0.311681562976225E+02
0.318770228436328E+02
0.325675910526939E+02
0.332267094735569E+02
0.338389605161952E+02
0.343872496687532E+02
0.348538250299460E+02
0.352216618014365E+02
0.354760474585200E+02
0.356061253158820E+02
0.270944547179991E+02
0.277175606476903E+02
0.283620124418600E+02
0.290254326545780E+02
0.297049661702429E+02
0.303969901654448E+02
0.310967478933174E+02
0.317979309692698E+02
0.324922642003867E+02
0.331691786610445E+02
0.338156828718435E+02
0.344165461418173E+02
0.349548813443349E+02
0.354131524243048E+02
0.357745421045375E+02
0.360245175855738E+02
0.361523550200353E+02
0.278506173241869E+02
0.284564643741755E+02
0.290838488592321E+02
0.297304710882275E+02
0.303935485515979E+02
0.310695310783515E+02
0.317537407978347E+02
0.324399612258771E+02
0.331200287942347E+02
0.337835114042348E+02
0.344175824346220E+02
0.350072027852453E+02
0.355356970950608E+02
0.359857490990462E+02
0.363407524166273E+02
0.365863566497169E+02
0.367119726483967E+02
0.286097417539141E+02
0.291991046439025E+02
0.298101324462893E+02
0.304406034520831E+02
0.310878091454182E+02
0.317482742351957E+02
0.324174025093775E+02
0.330890724730615E+02
0.337552353652879E+02
0.344055990134256E+02
0.350275045286555E+02
0.356061069473379E+02
0.361249448259815E+02
0.365669234205595E+02
0.369156485629562E+02
0.371569531873650E+02
0.372803834287459E+02
0.293642597785724E+02
0.299379902742941E+02
0.305334585582575E+02
0.311485196733603E+02
0.317805389583335E+02
0.324261166404234E+02
0.330807392804077E+02
0.337383816786978E+02
0.343911111223266E+02
0.350287763228115E+02
0.356388866391998E+02
0.362067912327081E+02
0.367162420443078E+02
0.371503648959741E+02
0.374929766363963E+02
0.377300923286484E+02
0.378513924215730E+02
0.301043606921548E+02
0.306634098076471E+02
0.312442246145662E+02
0.318447342854244E+02
0.324623763727739E+02
0.330938256455560E+02
0.337346507956670E+02
0.343789222825289E+02
0.350188224995350E+02
0.356443395323930E+02
0.362431487313547E+02
0.368007903240427E+02
0.373012258738797E+02
0.377277975639027E+02
0.380645290129049E+02
0.382976136100745E+02
0.384168632462725E+02
0.308177154940893E+02
0.313631607321510E+02
0.319303643251373E+02
0.325173255817174E+02
0.331215511145055E+02
0.337397875858840E+02
0.343676833062944E+02
0.349994016287855E+02
0.356272366587381E+02
0.362413115158922E+02
0.368294620582235E+02
0.373774129370739E+02
0.378693277505068E+02
0.382887569686888E+02
0.386199230904472E+02
0.388491909182921E+02
0.389664986362686E+02
0.314894712416598E+02
0.320225454291119E+02
0.325773451641995E+02
0.331519345187129E+02
0.337438844662978E+02
0.343500091730130E+02
0.349660320625829E+02
0.355862042991594E+02
0.362029255857663E+02
0.368064465504594E+02
0.373847544035059E+02
0.379237474672805E+02
0.384077793769747E+02
0.388205963412846E+02
0.391466076260223E+02
0.393723389244522E+02
0.394878469199157E+02
0.321026302366756E+02
0.326247471757321E+02
0.331685410408317E+02
0.337321339015340E+02
0.343131548206223E+02
0.349084792815880E+02
0.355138992281930E+02
0.361237460875382E+02
0.367305161127962E+02
0.373245764432182E+02
0.378940524537573E+02
0.384250008479094E+02
0.389019484150398E+02
0.393088195847996E+02
0.396301935804575E+02
0.398527424452041E+02
0.399666306217887E+02
0.326388820763791E+02
0.331516534442494E+02
0.336860465892765E+02
0.342402334347105E+02
0.348118932968806E+02
0.353979549894710E+02
0.359942702677732E+02
0.365952407494418E+02
0.371934471598897E+02
0.377793585402129E+02
0.383412210248681E+02
0.388652296456886E+02
0.393360623226255E+02
0.397377989521100E+02
0.400551669510777E+02
0.402749659304566E+02
0.403874542418513E+02
0.330798734817670E+02
0.335851116009883E+02
0.341119183704132E+02
0.346585061147745E+02
0.352225950828210E+02
0.358011577117858E+02
0.363900948268917E+02
0.369838657208446E+02
0.375751205624815E+02
0.381544121511570E+02
0.387100858348995E+02
0.392284502339338E+02
0.396943073084101E+02
0.400918645008413E+02
0.404059707670535E+02
0.406235303147718E+02
0.407348784811681E+02
0.334087958537681E+02
0.339084983867386E+02
0.344297258257920E+02
0.349707202881567E+02
0.355292323202602E+02
0.361022667516332E+02
0.366857609254743E+02
0.372742171088120E+02
0.378603372351983E+02
0.384347365350838E+02
0.389858342858675E+02
0.395000237181977E+02
0.399621991562050E+02
0.403566629887727E+02
0.406683546246843E+02
0.408842561017338E+02
0.409947600345616E+02
0.336120709628543E+02
0.341083861933788E+02
0.346261976669656E+02
0.351637657699424E+02
0.357188596738277E+02
0.362885041628841E+02
0.368686591102791E+02
0.374538533183847E+02
0.380368206936293E+02
0.386082150267201E+02
0.391565012491478E+02
0.396681248298475E+02
0.401280371057392E+02
0.405205990613029E+02
0.408308059191876E+02
0.410456877364626E+02
0.411556724636829E+02
0.336808534700660E+02
0.341760281750323E+02
0.346926891555601E+02
0.352291029554023E+02
0.357830450312432E+02
0.363515469082837E+02
0.369305760762803E+02
0.375146703120542E+02
0.380965743372204E+02
0.386669549858853E+02
0.392142926312322E+02
0.397250504089660E+02
0.401841989354314E+02
0.405761190079195E+02
0.408858247198704E+02
0.411003623628333E+02
0.412101718333344E+02
0.241964942437590E+02
0.248952094802994E+02
0.256136831780211E+02
0.263492630702908E+02
0.270988508634787E+02
0.278585879289697E+02
0.286234617559468E+02
0.293868591584085E+02
0.301401229868742E+02
0.308722023010996E+02
0.315695113119305E+02
0.322161168189327E+02
0.327943457526832E+02
0.332858393682045E+02
0.336729863173782E+02
0.339405642671589E+02
0.340773388599741E+02
0.248948496145583E+02
0.255737906531904E+02
0.262730269355719E+02
0.269899656489156E+02
0.277215586093397E+02
0.284639945683036E+02
0.292123128611332E+02
0.299599640966117E+02
0.306983740072784E+02
0.314165994094750E+02
0.321011902801744E+02
0.327363763197000E+02
0.333046685697848E+02
0.337879023399610E+02
0.341686544628611E+02
0.344318665217709E+02
0.345664257578552E+02
0.256126468471448E+02
0.262723545078614E+02
0.269527956859078E+02
0.276514445540587E+02
0.283653114134461E+02
0.290906412451447E+02
0.298225343264069E+02
0.305545142873483E+02
0.312780990597348E+02
0.319824626152817E+02
0.326543001510972E+02
0.332780136876459E+02
0.338363075740733E+02
0.343112198460579E+02
0.346855232635951E+02
0.349443296927707E+02
0.350766525177510E+02
0.263470015506029E+02
0.269880791963047E+02
0.276502377364376E+02
0.283310237699022E+02
0.290275125547269E+02
0.297360124402795E+02
0.304516921999711E+02
0.311681562976224E+02
0.318770228436327E+02
0.325675910526939E+02
0.332267094735568E+02
0.338389605161951E+02
0.343872496687531E+02
0.348538250299459E+02
0.352216618014364E+02
0.354760474585199E+02
0.356061253158819E+02
0.270944547179991E+02
0.277175606476903E+02
0.283620124418599E+02
0.290254326545780E+02
0.297049661702429E+02
0.303969901654448E+02
0.310967478933174E+02
0.317979309692698E+02
0.324922642003867E+02
0.331691786610445E+02
0.338156828718435E+02
0.344165461418172E+02
0.349548813443349E+02
0.354131524243048E+02
0.357745421045374E+02
0.360245175855738E+02
0.361523550200353E+02
0.278506173241868E+02
0.284564643741755E+02
0.290838488592320E+02
0.297304710882274E+02
0.303935485515979E+02
0.310695310783514E+02
0.317537407978347E+02
0.324399612258771E+02
0.331200287942347E+02
0.337835114042348E+02
0.344175824346220E+02
0.350072027852452E+02
0.355356970950607E+02
0.359857490990462E+02
0.363407524166272E+02
0.365863566497169E+02
0.367119726483966E+02
0.286097417539140E+02
0.291991046439024E+02
0.298101324462893E+02
0.304406034520830E+02
0.310878091454182E+02
0.317482742351956E+02
0.324174025093775E+02
0.330890724730615E+02
0.337552353652879E+02
0.344055990134255E+02
0.350275045286555E+02
0.356061069473378E+02
0.361249448259815E+02
0.365669234205595E+02
0.369156485629562E+02
0.371569531873650E+02
0.372803834287458E+02
0.293642597785724E+02
0.299379902742941E+02
0.305334585582574E+02
0.311485196733603E+02
0.317805389583335E+02
0.324261166404234E+02
0.330807392804077E+02
0.337383816786978E+02
0.343911111223265E+02
0.350287763228115E+02
0.356388866391998E+02
0.362067912327081E+02
0.367162420443078E+02
0.371503648959740E+02
0.374929766363963E+02
0.377300923286484E+02
0.378513924215729E+02
0.301043606921548E+02
0.306634098076470E+02
0.312442246145661E+02
0.318447342854243E+02
0.324623763727739E+02
0.330938256455560E+02
0.337346507956670E+02
0.343789222825289E+02
0.350188224995350E+02
0.356443395323930E+02
0.362431487313546E+02
0.368007903240426E+02
0.373012258738797E+02
0.377277975639027E+02
0.380645290129049E+02
0.382976136100744E+02
0.384168632462724E+02
0.308177154940892E+02
0.313631607321510E+02
0.319303643251373E+02
0.325173255817174E+02
0.331215511145055E+02
0.337397875858840E+02
0.343676833062944E+02
0.349994016287855E+02
0.356272366587381E+02
0.362413115158922E+02
0.368294620582234E+02
0.373774129370739E+02
0.378693277505068E+02
0.382887569686888E+02
0.386199230904471E+02
0.388491909182921E+02
0.389664986362685E+02
0.314894712416598E+02
0.320225454291118E+02
0.325773451641995E+02
0.331519345187129E+02
0.337438844662978E+02
0.343500091730129E+02
0.349660320625829E+02
0.355862042991594E+02
0.362029255857663E+02
0.368064465504594E+02
0.373847544035058E+02
0.379237474672805E+02
0.384077793769746E+02
0.388205963412846E+02
0.391466076260223E+02
0.393723389244522E+02
0.394878469199156E+02
0.321026302366755E+02
0.326247471757320E+02
0.331685410408317E+02
0.337321339015340E+02
0.343131548206223E+02
0.349084792815879E+02
0.355138992281930E+02
0.361237460875381E+02
0.367305161127961E+02
0.373245764432181E+02
0.378940524537573E+02
0.384250008479094E+02
0.389019484150398E+02
0.393088195847996E+02
0.396301935804575E+02
0.398527424452041E+02
0.399666306217887E+02
0.326388820763791E+02
0.331516534442494E+02
0.336860465892765E+02
0.342402334347104E+02
0.348118932968806E+02
0.353979549894710E+02
0.359942702677732E+02
0.365952407494418E+02
0.371934471598897E+02
0.377793585402129E+02
0.383412210248681E+02
0.388652296456886E+02
0.393360623226255E+02
0.397377989521100E+02
0.400551669510777E+02
0.402749659304566E+02
0.403874542418513E+02
0.330798734817670E+02
0.335851116009883E+02
0.341119183704132E+02
0.346585061147744E+02
0.352225950828210E+02
0.358011577117858E+02
0.363900948268917E+02
0.369838657208446E+02
0.375751205624815E+02
0.381544121511570E+02
0.387100858348994E+02
0.392284502339337E+02
0.396943073084101E+02
0.400918645008412E+02
0.404059707670535E+02
0.406235303147717E+02
0.407348784811681E+02
0.334087958537680E+02
0.339084983867386E+02
0.344297258257920E+02
0.349707202881566E+02
0.355292323202601E+02
0.361022667516332E+02
0.366857609254743E+02
0.372742171088120E+02
0.378603372351983E+02
0.384347365350837E+02
0.389858342858675E+02
0.395000237181977E+02
0.399621991562050E+02
0.403566629887727E+02
0.406683546246843E+02
0.408842561017337E+02
0.409947600345615E+02
0.336120709628543E+02
0.341083861933788E+02
0.346261976669655E+02
0.351637657699423E+02
0.357188596738277E+02
0.362885041628840E+02
0.368686591102791E+02
0.374538533183847E+02
0.380368206936292E+02
0.386082150267201E+02
0.391565012491478E+02
0.396681248298475E+02
0.401280371057391E+02
0.405205990613028E+02
0.408308059191876E+02
0.410456877364626E+02
0.411556724636828E+02
0.336808534700660E+02
0.341760281750323E+02
0.346926891555601E+02
0.352291029554022E+02
0.357830450312431E+02
0.363515469082836E+02
0.369305760762803E+02
0.375146703120542E+02
0.380965743372204E+02
0.386669549858852E+02
0.392142926312321E+02
0.397250504089660E+02
0.401841989354314E+02
0.405761190079195E+02
0.408858247198704E+02
0.411003623628332E+02
0.412101718333344E+02
0.241964942437590E+02
0.248952094802995E+02
0.256136831780212E+02
0.263492630702909E+02
0.270988508634787E+02
0.278585879289697E+02
0.286234617559468E+02
0.293868591584086E+02
0.301401229868742E+02
0.308722023010997E+02
0.315695113119306E+02
0.322161168189327E+02
0.327943457526832E+02
0.332858393682046E+02
0.336729863173783E+02
0.339405642671589E+02
0.340773388599742E+02
0.248948496145584E+02
0.255737906531904E+02
0.262730269355720E+02
0.269899656489157E+02
0.277215586093397E+02
0.284639945683037E+02
0.292123128611333E+02
0.299599640966118E+02
0.306983740072785E+02
0.314165994094750E+02
0.321011902801744E+02
0.327363763197001E+02
0.333046685697849E+02
0.337879023399610E+02
0.341686544628611E+02
0.344318665217709E+02
0.345664257578552E+02
0.256126468471449E+02
0.262723545078614E+02
0.269527956859079E+02
0.276514445540588E+02
0.283653114134461E+02
0.290906412451448E+02
0.298225343264069E+02
0.305545142873484E+02
0.312780990597348E+02
0.319824626152818E+02
0.326543001510972E+02
0.332780136876459E+02
0.338363075740733E+02
0.343112198460579E+02
0.346855232635952E+02
0.349443296927707E+02
0.350766525177510E+02
0.263470015506030E+02
0.269880791963047E+02
0.276502377364377E+02
0.283310237699022E+02
0.290275125547270E+02
0.297360124402795E+02
0.304516921999712E+02
0.311681562976225E+02
0.318770228436328E+02
0.325675910526939E+02
0.332267094735569E+02
0.338389605161952E+02
0.343872496687532E+02
0.348538250299460E+02
0.352216618014365E+02
0.354760474585200E+02
0.356061253158820E+02
0.270944547179991E+02
0.277175606476903E+02
0.283620124418600E+02
0.290254326545780E+02
0.297049661702429E+02
0.303969901654448E+02
0.310967478933174E+02
0.317979309692698E+02
0.324922642003867E+02
0.331691786610445E+02
0.338156828718435E+02
0.344165461418173E+02
0.349548813443349E+02
0.354131524243048E+02
0.357745421045375E+02
0.360245175855738E+02
0.361523550200353E+02
0.278506173241869E+02
0.284564643741755E+02
0.290838488592321E+02
0.297304710882275E+02
0.303935485515979E+02
0.310695310783515E+02
0.317537407978347E+02
0.324399612258771E+02
0.331200287942347E+02
0.337835114042348E+02
0.344175824346220E+02
0.350072027852453E+02
0.355356970950608E+02
0.359857490990462E+02
0.363407524166273E+02
0.365863566497169E+02
0.367119726483967E+02
0.286097417539141E+02
0.291991046439025E+02
0.298101324462893E+02
0.304406034520831E+02
0.310878091454182E+02
0.317482742351957E+02
0.324174025093775E+02
0.330890724730615E+02
0.337552353652879E+02
0.344055990134256E+02
0.350275045286555E+02
0.356061069473379E+02
0.361249448259815E+02
0.365669234205595E+02
0.369156485629562E+02
0.371569531873650E+02
0.372803834287459E+02
0.293642597785724E+02
0.299379902742941E+02
0.305334585582575E+02
0.311485196733603E+02
0.317805389583335E+02
0.324261166404234E+02
0.330807392804077E+02
0.337383816786978E+02
0.343911111223266E+02
0.350287763228115E+02
0.356388866391998E+02
0.362067912327081E+02
0.367162420443078E+02
0.371503648959741E+02
0.374929766363963E+02
0.377300923286484E+02
0.378513924215730E+02
0.301043606921548E+02
0.306634098076471E+02
0.312442246145662E+02
0.318447342854244E+02
0.324623763727739E+02
0.330938256455560E+02
0.337346507956670E+02
0.343789222825289E+02
0.350188224995350E+02
0.356443395323930E+02
0.362431487313547E+02
0.368007903240427E+02
0.373012258738797E+02
0.377277975639027E+02
0.380645290129049E+02
0.382976136100745E+02
0.384168632462725E+02
0.308177154940893E+02
0.313631607321510E+02
0.319303643251373E+02
0.325173255817174E+02
0.331215511145055E+02
0.337397875858840E+02
0.343676833062944E+02
0.349994016287855E+02
0.356272366587381E+02
0.362413115158922E+02
0.368294620582235E+02
0.373774129370739E+02
0.378693277505068E+02
0.382887569686888E+02
0.386199230904472E+02
0.388491909182921E+02
0.389664986362686E+02
0.314894712416598E+02
0.320225454291119E+02
0.325773451641995E+02
0.331519345187129E+02
0.337438844662978E+02
0.343500091730130E+02
0.349660320625829E+02
0.355862042991594E+02
0.362029255857663E+02
0.368064465504594E+02
0.373847544035059E+02
0.379237474672805E+02
0.384077793769747E+02
0.388205963412846E+02
0.391466076260223E+02
0.393723389244522E+02
0.394878469199157E+02
0.321026302366756E+02
0.326247471757321E+02
0.331685410408317E+02
0.337321339015340E+02
0.343131548206223E+02
0.349084792815880E+02
0.355138992281930E+02
0.361237460875382E+02
0.367305161127962E+02
0.373245764432182E+02
0.378940524537573E+02
0.384250008479094E+02
0.389019484150398E+02
0.393088195847996E+02
0.396301935804575E+02
0.398527424452041E+02
0.399666306217887E+02
0.326388820763791E+02
0.331516534442494E+02
0.336860465892765E+02
0.342402334347105E+02
0.348118932968806E+02
0.353979549894710E+02
0.359942702677732E+02
0.365952407494418E+02
0.371934471598897E+02
0.377793585402129E+02
0.383412210248681E+02
0.388652296456886E+02
0.393360623226255E+02
0.397377989521100E+02
0.400551669510777E+02
0.402749659304566E+02
0.403874542418513E+02
0.330798734817670E+02
0.335851116009883E+02
0.341119183704132E+02
0.346585061147745E+02
0.352225950828210E+02
0.358011577117858E+02
0.363900948268917E+02
0.369838657208446E+02
0.375751205624815E+02
0.381544121511570E+02
0.387100858348995E+02
0.392284502339338E+02
0.396943073084101E+02
0.400918645008413E+02
0.404059707670535E+02
0.406235303147718E+02
0.407348784811681E+02
0.334087958537681E+02
0.339084983867386E+02
0.344297258257920E+02
0.349707202881567E+02
0.355292323202602E+02
0.361022667516332E+02
0.366857609254743E+02
0.372742171088120E+02
0.378603372351983E+02
0.384347365350838E+02
0.389858342858675E+02
0.395000237181977E+02
0.399621991562050E+02
0.403566629887727E+02
0.406683546246843E+02
0.408842561017338E+02
0.409947600345616E+02
0.336120709628543E+02
0.341083861933788E+02
0.346261976669656E+02
0.351637657699424E+02
0.357188596738277E+02
0.362885041628841E+02
0.368686591102791E+02
0.374538533183847E+02
0.380368206936293E+02
0.386082150267201E+02
0.391565012491478E+02
0.396681248298475E+02
0.401280371057392E+02
0.405205990613029E+02
0.408308059191876E+02
0.410456877364626E+02
0.411556724636829E+02
0.336808534700660E+02
0.341760281750323E+02
0.346926891555601E+02
0.352291029554023E+02
0.357830450312432E+02
0.363515469082837E+02
0.369305760762803E+02
0.375146703120542E+02
0.380965743372204E+02
0.386669549858853E+02
0.392142926312322E+02
0.397250504089660E+02
0.401841989354314E+02
0.405761190079195E+02
0.408858247198704E+02
0.411003623628333E+02
0.412101718333344E+02
0.241964942437591E+02
0.248952094802995E+02
0.256136831780213E+02
0.263492630702909E+02
0.270988508634788E+02
0.278585879289698E+02
0.286234617559469E+02
0.293868591584086E+02
0.301401229868743E+02
0.308722023010997E+02
0.315695113119306E+02
0.322161168189327E+02
0.327943457526833E+02
0.332858393682046E+02
0.336729863173783E+02
0.339405642671590E+02
0.340773388599742E+02
0.248948496145584E+02
0.255737906531905E+02
0.262730269355720E+02
0.269899656489157E+02
0.277215586093398E+02
0.284639945683037E+02
0.292123128611333E+02
0.299599640966118E+02
0.306983740072785E+02
0.314165994094751E+02
0.321011902801745E+02
0.327363763197001E+02
0.333046685697849E+02
0.337879023399610E+02
0.341686544628611E+02
0.344318665217710E+02
0.345664257578553E+02
0.256126468471449E+02
0.262723545078615E+02
0.269527956859079E+02
0.276514445540588E+02
0.283653114134462E+02
0.290906412451448E+02
0.298225343264069E+02
0.305545142873484E+02
0.312780990597349E+02
0.319824626152818E+02
0.326543001510973E+02
0.332780136876460E+02
0.338363075740734E+02
0.343112198460580E+02
0.346855232635952E+02
0.349443296927707E+02
0.350766525177511E+02
0.263470015506030E+02
0.269880791963048E+02
0.276502377364377E+02
0.283310237699022E+02
0.290275125547270E+02
0.297360124402796E+02
0.304516921999712E+02
0.311681562976225E+02
0.318770228436328E+02
0.325675910526939E+02
0.332267094735569E+02
0.338389605161952E+02
0.343872496687532E+02
0.348538250299460E+02
0.352216618014365E+02
0.354760474585200E+02
0.356061253158820E+02
0.270944547179992E+02
0.277175606476903E+02
0.283620124418600E+02
0.290254326545781E+02
0.297049661702430E+02
0.303969901654449E+02
0.310967478933175E+02
0.317979309692698E+02
0.324922642003868E+02
0.331691786610445E+02
0.338156828718435E+02
0.344165461418173E+02
0.349548813443350E+02
0.354131524243048E+02
0.357745421045375E+02
0.360245175855738E+02
0.361523550200354E+02
0.278506173241869E+02
0.284564643741756E+02
0.290838488592321E+02
0.297304710882275E+02
0.303935485515980E+02
0.310695310783515E+02
0.317537407978348E+02
0.324399612258771E+02
0.331200287942347E+02
0.337835114042349E+02
0.344175824346221E+02
0.350072027852453E+02
0.355356970950608E+02
0.359857490990463E+02
0.363407524166273E+02
0.365863566497170E+02
0.367119726483967E+02
0.286097417539141E+02
0.291991046439025E+02
0.298101324462894E+02
0.304406034520831E+02
0.310878091454183E+02
0.317482742351957E+02
0.324174025093775E+02
0.330890724730616E+02
0.337552353652880E+02
0.344055990134256E+02
0.350275045286556E+02
0.356061069473379E+02
0.361249448259815E+02
0.365669234205596E+02
0.369156485629562E+02
0.371569531873651E+02
0.372803834287459E+02
0.293642597785725E+02
0.299379902742942E+02
0.305334585582575E+02
0.311485196733604E+02
0.317805389583335E+02
0.324261166404234E+02
0.330807392804078E+02
0.337383816786979E+02
0.343911111223266E+02
0.350287763228115E+02
0.356388866391999E+02
0.362067912327081E+02
0.367162420443079E+02
0.371503648959741E+02
0.374929766363964E+02
0.377300923286485E+02
0.378513924215730E+02
0.301043606921548E+02
0.306634098076471E+02
0.312442246145662E+02
0.318447342854244E+02
0.324623763727740E+02
0.330938256455561E+02
0.337346507956671E+02
0.343789222825289E+02
0.350188224995350E+02
0.356443395323930E+02
0.362431487313547E+02
0.368007903240427E+02
0.373012258738798E+02
0.377277975639028E+02
0.380645290129049E+02
0.382976136100745E+02
0.384168632462725E+02
0.308177154940893E+02
0.313631607321510E+02
0.319303643251374E+02
0.325173255817174E+02
0.331215511145056E+02
0.337397875858841E+02
0.343676833062944E+02
0.349994016287856E+02
0.356272366587382E+02
0.362413115158923E+02
0.368294620582235E+02
0.373774129370740E+02
0.378693277505068E+02
0.382887569686889E+02
0.386199230904472E+02
0.388491909182922E+02
0.389664986362686E+02
0.314894712416598E+02
0.320225454291119E+02
0.325773451641996E+02
0.331519345187130E+02
0.337438844662979E+02
0.343500091730130E+02
0.349660320625830E+02
0.355862042991595E+02
0.362029255857663E+02
0.368064465504595E+02
0.373847544035059E+02
0.379237474672806E+02
0.384077793769747E+02
0.388205963412846E+02
0.391466076260223E+02
0.393723389244523E+02
0.394878469199157E+02
0.321026302366756E+02
0.326247471757321E+02
0.331685410408318E+02
0.337321339015341E+02
0.343131548206224E+02
0.349084792815880E+02
0.355138992281930E+02
0.361237460875382E+02
0.367305161127962E+02
0.373245764432182E+02
0.378940524537574E+02
0.384250008479095E+02
0.389019484150398E+02
0.393088195847997E+02
0.396301935804575E+02
0.398527424452042E+02
0.399666306217888E+02
0.326388820763791E+02
0.331516534442494E+02
0.336860465892766E+02
0.342402334347105E+02
0.348118932968806E+02
0.353979549894711E+02
0.359942702677733E+02
0.365952407494419E+02
0.371934471598898E+02
0.377793585402130E+02
0.383412210248681E+02
0.388652296456887E+02
0.393360623226256E+02
0.397377989521101E+02
0.400551669510777E+02
0.402749659304567E+02
0.403874542418514E+02
0.330798734817671E+02
0.335851116009884E+02
0.341119183704132E+02
0.346585061147745E+02
0.352225950828211E+02
0.358011577117858E+02
0.363900948268918E+02
0.369838657208447E+02
0.375751205624816E+02
0.381544121511571E+02
0.387100858348995E+02
0.392284502339338E+02
0.396943073084102E+02
0.400918645008413E+02
0.404059707670535E+02
0.406235303147718E+02
0.407348784811681E+02
0.334087958537681E+02
0.339084983867387E+02
0.344297258257920E+02
0.349707202881567E+02
0.355292323202602E+02
0.361022667516333E+02
0.366857609254744E+02
0.372742171088121E+02
0.378603372351984E+02
0.384347365350838E+02
0.389858342858675E+02
0.395000237181977E+02
0.399621991562050E+02
0.403566629887727E+02
0.406683546246843E+02
0.408842561017338E+02
0.409947600345616E+02
0.336120709628543E+02
0.341083861933789E+02
0.346261976669656E+02
0.351637657699424E+02
0.357188596738278E+02
0.362885041628841E+02
0.368686591102792E+02
0.374538533183848E+02
0.380368206936293E+02
0.386082150267202E+02
0.391565012491479E+02
0.396681248298476E+02
0.401280371057392E+02
0.405205990613029E+02
0.408308059191876E+02
0.410456877364627E+02
0.411556724636829E+02
0.336808534700661E+02
0.341760281750324E+02
0.346926891555602E+02
0.352291029554023E+02
0.357830450312432E+02
0.363515469082837E+02
0.369305760762804E+02
0.375146703120543E+02
0.380965743372204E+02
0.386669549858853E+02
0.392142926312322E+02
0.397250504089661E+02
0.401841989354315E+02
0.405761190079195E+02
0.408858247198704E+02
0.411003623628333E+02
0.412101718333345E+02
</DataArray>
</PointData>
</Piece>
</RectilinearGrid>
</VTKFile>
