<?xml version="1.0"?>
<VTKFile type="RectilinearGrid" version="0.1" byte_order="LittleEndian">
<RectilinearGrid WholeExtent="0   63    0   63    0    3">
<Piece Extent="0   15    0   15    0    3">
<Coordinates>
<DataArray Name="x" type="Float32" format="ascii">
0.000000000000000E+00
0.100000000000000E+00
0.200000000000000E+00
0.300000000000000E+00
0.400000000000000E+00
0.500000000000000E+00
0.600000000000000E+00
0.700000000000000E+00
0.800000000000000E+00
0.900000000000000E+00
0.100000000000000E+01
0.110000000000000E+01
0.120000000000000E+01
0.130000000000000E+01
0.140000000000000E+01
0.150000000000000E+01
</DataArray>
<DataArray Name="y" type="Float32" format="ascii">
0.000000000000000E+00
0.100000000000000E+00
0.200000000000000E+00
0.300000000000000E+00
0.400000000000000E+00
0.500000000000000E+00
0.600000000000000E+00
0.700000000000000E+00
0.800000000000000E+00
0.900000000000000E+00
0.100000000000000E+01
0.110000000000000E+01
0.120000000000000E+01
0.130000000000000E+01
0.140000000000000E+01
0.150000000000000E+01
</DataArray>
<DataArray Name="z" type="Float32" format="ascii">
0.000000000000000E+00
0.100000000000000E+00
0.200000000000000E+00
0.300000000000000E+00
</DataArray>
</Coordinates>
<PointData Scalars="c">
<DataArray type="Float32" Name="c" format="ascii">
0.333542048419431E+02
0.333170367894443E+02
0.332431564105082E+02
0.331334668660553E+02
0.329893024320391E+02
0.328124046635788E+02
0.326048917812540E+02
0.323692222087481E+02
0.321081533392114E+02
0.318246967075556E+02
0.315220707946568E+02
0.312036526873361E+02
0.308729297679225E+02
0.305334525145683E+02
0.301887893655751E+02
0.298424844464930E+02
0.332967205059349E+02
0.332594514098964E+02
0.331853698647952E+02
0.330753808666405E+02
0.329308214272224E+02
0.327534367182234E+02
0.325453494310243E+02
0.323090232815310E+02
0.320472217375280E+02
0.317629631458841E+02
0.314594734856649E+02
0.311401379710555E+02
0.308084526778969E+02
0.304679772749722E+02
0.301222898132672E+02
0.297749443719616E+02
0.332016803236372E+02
0.331642437947789E+02
0.330898289081477E+02
0.329793436968936E+02
0.328341297009024E+02
0.326559380779830E+02
0.324468989201023E+02
0.322094847042121E+02
0.319464689553847E+02
0.316608812997527E+02
0.313559601334207E+02
0.310351041312922E+02
0.307018237695884E+02
0.303596939431281E+02
0.300123086305161E+02
0.296632384059713E+02
0.330702202965422E+02
0.330325513985479E+02
0.329576738849793E+02
0.328464999964623E+02
0.327003775462193E+02
0.325210659860838E+02
0.323107056629286E+02
0.320717811953314E+02
0.318070800484577E+02
0.315196474848591E+02
0.312127391174741E+02
0.308897722887922E+02
0.305542774498864E+02
0.302098506202465E+02
0.298601078814248E+02
0.295086427031573E+02
0.329039021720096E+02
0.328659379894482E+02
0.327904725832414E+02
0.326784235280051E+02
0.325311465905650E+02
0.323504117394388E+02
0.321383723263756E+02
0.318975283700903E+02
0.316306850204567E+02
0.313409073810619E+02
0.310314729164970E+02
0.307058226683060E+02
0.303675124531400E+02
0.300201651238176E+02
0.296674248460665E+02
0.293129141894762E+02
0.327046858745864E+02
0.326663660676661E+02
0.325901926265300E+02
0.324770895309387E+02
0.323284220994846E+02
0.321459729322823E+02
0.319319110039622E+02
0.316887548374269E+02
0.314193308368986E+02
0.311267279583257E+02
0.308142499435392E+02
0.304853663419393E+02
0.301436634929744E+02
0.297927965497410E+02
0.294364434961099E+02
0.290782619556698E+02
0.324748955536380E+02
0.324361628961491E+02
0.323591674716415E+02
0.322448406699826E+02
0.320945588614961E+02
0.319101192638772E+02
0.316937089346462E+02
0.314478678198836E+02
0.311754469379893E+02
0.308795628766053E+02
0.305635498289932E+02
0.302309103933512E+02
0.298852663078728E+02
0.295303102013162E+02
0.291697593109437E+02
0.288073119657386E+02
0.322171802688212E+02
0.321779811656775E+02
0.321000570332616E+02
0.319843476003167E+02
0.318322416757812E+02
0.316455529323695E+02
0.314264887883376E+02
0.311776133183932E+02
0.309018052726000E+02
0.306022123813570E+02
0.302822031724676E+02
0.299453175232858E+02
0.295952171200538E+02
0.292356369034051E+02
0.288703384511216E+02
0.285030660954844E+02
0.319344704603503E+02
0.318947554411701E+02
0.318158040828282E+02
0.316985652964547E+02
0.315444415898976E+02
0.313552647619347E+02
0.311332646651924E+02
0.308810319688298E+02
0.306014759998065E+02
0.302977788405624E+02
0.299733469086281E+02
0.296317612403968E+02
0.292767276502042E+02
0.289120278426096E+02
0.285414724279291E+02
0.281688566375623E+02
0.316299314254434E+02
0.315896556106150E+02
0.315095876429495E+02
0.313906863661810E+02
0.312343691087690E+02
0.310424872842991E+02
0.308172950294623E+02
0.305614118106305E+02
0.302777800776140E+02
0.299696191419496E+02
0.296403765044623E+02
0.292936778532671E+02
0.289332769020605E+02
0.285630061451825E+02
0.281867294781448E+02
0.278082974791065E+02
0.313069150445538E+02
0.312660385801867E+02
0.311847746208510E+02
0.310640925928665E+02
0.309054256180191E+02
0.307106460173148E+02
0.304820338200301E+02
0.302222392088478E+02
0.299342399792028E+02
0.296212951894234E+02
0.292868962253146E+02
0.289347164989311E+02
0.285685609497179E+02
0.281923164227105E+02
0.278099038707845E+02
0.274252331750678E+02
0.309689109726472E+02
0.309273994307337E+02
0.308448708958616E+02
0.307223059208913E+02
0.305611542359521E+02
0.303633101543018E+02
0.301310809505339E+02
0.298671491414773E+02
0.295745297471812E+02
0.292565237074908E+02
0.289166686764024E+02
0.285586884121303E+02
0.281864419289824E+02
0.278038734835348E+02
0.274149643400048E+02
0.270236871072326E+02
0.306194984362361E+02
0.305773231762241E+02
0.304934730012817E+02
0.303689400241231E+02
0.302051912335640E+02
0.300041438027635E+02
0.297681333366724E+02
0.294998759883484E+02
0.292024255205007E+02
0.288791264863401E+02
0.285335647500726E+02
0.281695165627316E+02
0.277908973569219E+02
0.274017113303323E+02
0.270060027604113E+02
0.266078098405610E+02
0.302622996627011E+02
0.302194381505402E+02
0.301342214267250E+02
0.300076534830769E+02
0.298412190475503E+02
0.296368587965582E+02
0.293969374736221E+02
0.291242058430605E+02
0.288217575537325E+02
0.284929820851127E+02
0.281415149937727E+02
0.277711866732860E+02
0.273859707881505E+02
0.269899334485004E+02
0.265871840650782E+02
0.261818286723939E+02
0.299009358229122E+02
0.298573719034839E+02
0.297707564214966E+02
0.296421054508444E+02
0.294729217657264E+02
0.292651699600487E+02
0.290212444409434E+02
0.287439312239042E+02
0.284363646028788E+02
0.281019798654188E+02
0.277444632682781E+02
0.273677004833549E+02
0.269757246711350E+02
0.265726652448714E+02
0.261626982616275E+02
0.257499992253087E+02
0.295389862006666E+02
0.294947103193871E+02
0.294066770121399E+02
0.292759145205215E+02
0.291039437970221E+02
0.288927535356292E+02
0.286447680453899E+02
0.283628088929462E+02
0.280500513853823E+02
0.277099770609315E+02
0.273463233998433E+02
0.269630319617438E+02
0.265641961027690E+02
0.261540093317336E+02
0.257367152377101E+02
0.253165597709813E+02
0.333542048419431E+02
0.333170367894443E+02
0.332431564105082E+02
0.331334668660553E+02
0.329893024320391E+02
0.328124046635788E+02
0.326048917812540E+02
0.323692222087481E+02
0.321081533392114E+02
0.318246967075556E+02
0.315220707946568E+02
0.312036526873361E+02
0.308729297679225E+02
0.305334525145683E+02
0.301887893655751E+02
0.298424844464930E+02
0.332967205059349E+02
0.332594514098964E+02
0.331853698647952E+02
0.330753808666405E+02
0.329308214272224E+02
0.327534367182234E+02
0.325453494310243E+02
0.323090232815310E+02
0.320472217375280E+02
0.317629631458841E+02
0.314594734856649E+02
0.311401379710555E+02
0.308084526778969E+02
0.304679772749722E+02
0.301222898132672E+02
0.297749443719616E+02
0.332016803236372E+02
0.331642437947789E+02
0.330898289081477E+02
0.329793436968936E+02
0.328341297009024E+02
0.326559380779830E+02
0.324468989201023E+02
0.322094847042121E+02
0.319464689553847E+02
0.316608812997527E+02
0.313559601334207E+02
0.310351041312922E+02
0.307018237695884E+02
0.303596939431281E+02
0.300123086305161E+02
0.296632384059713E+02
0.330702202965422E+02
0.330325513985479E+02
0.329576738849793E+02
0.328464999964623E+02
0.327003775462193E+02
0.325210659860838E+02
0.323107056629286E+02
0.320717811953314E+02
0.318070800484577E+02
0.315196474848591E+02
0.312127391174741E+02
0.308897722887922E+02
0.305542774498864E+02
0.302098506202465E+02
0.298601078814248E+02
0.295086427031573E+02
0.329039021720096E+02
0.328659379894482E+02
0.327904725832414E+02
0.326784235280051E+02
0.325311465905650E+02
0.323504117394388E+02
0.321383723263756E+02
0.318975283700903E+02
0.316306850204567E+02
0.313409073810619E+02
0.310314729164970E+02
0.307058226683060E+02
0.303675124531400E+02
0.300201651238176E+02
0.296674248460665E+02
0.293129141894762E+02
0.327046858745864E+02
0.326663660676661E+02
0.325901926265300E+02
0.324770895309387E+02
0.323284220994846E+02
0.321459729322823E+02
0.319319110039622E+02
0.316887548374269E+02
0.314193308368986E+02
0.311267279583257E+02
0.308142499435392E+02
0.304853663419393E+02
0.301436634929744E+02
0.297927965497410E+02
0.294364434961099E+02
0.290782619556698E+02
0.324748955536380E+02
0.324361628961491E+02
0.323591674716415E+02
0.322448406699826E+02
0.320945588614961E+02
0.319101192638772E+02
0.316937089346462E+02
0.314478678198836E+02
0.311754469379893E+02
0.308795628766053E+02
0.305635498289932E+02
0.302309103933512E+02
0.298852663078728E+02
0.295303102013162E+02
0.291697593109437E+02
0.288073119657386E+02
0.322171802688212E+02
0.321779811656775E+02
0.321000570332616E+02
0.319843476003167E+02
0.318322416757812E+02
0.316455529323695E+02
0.314264887883376E+02
0.311776133183932E+02
0.309018052726000E+02
0.306022123813570E+02
0.302822031724676E+02
0.299453175232858E+02
0.295952171200538E+02
0.292356369034051E+02
0.288703384511216E+02
0.285030660954844E+02
0.319344704603503E+02
0.318947554411701E+02
0.318158040828282E+02
0.316985652964547E+02
0.315444415898976E+02
0.313552647619347E+02
0.311332646651924E+02
0.308810319688298E+02
0.306014759998065E+02
0.302977788405624E+02
0.299733469086281E+02
0.296317612403968E+02
0.292767276502042E+02
0.289120278426096E+02
0.285414724279291E+02
0.281688566375623E+02
0.316299314254434E+02
0.315896556106150E+02
0.315095876429495E+02
0.313906863661810E+02
0.312343691087690E+02
0.310424872842991E+02
0.308172950294623E+02
0.305614118106305E+02
0.302777800776140E+02
0.299696191419496E+02
0.296403765044623E+02
0.292936778532671E+02
0.289332769020605E+02
0.285630061451825E+02
0.281867294781448E+02
0.278082974791065E+02
0.313069150445538E+02
0.312660385801867E+02
0.311847746208510E+02
0.310640925928665E+02
0.309054256180191E+02
0.307106460173148E+02
0.304820338200301E+02
0.302222392088478E+02
0.299342399792028E+02
0.296212951894234E+02
0.292868962253146E+02
0.289347164989311E+02
0.285685609497179E+02
0.281923164227105E+02
0.278099038707845E+02
0.274252331750678E+02
0.309689109726472E+02
0.309273994307337E+02
0.308448708958616E+02
0.307223059208913E+02
0.305611542359521E+02
0.303633101543018E+02
0.301310809505339E+02
0.298671491414773E+02
0.295745297471812E+02
0.292565237074908E+02
0.289166686764024E+02
0.285586884121303E+02
0.281864419289824E+02
0.278038734835348E+02
0.274149643400048E+02
0.270236871072326E+02
0.306194984362361E+02
0.305773231762241E+02
0.304934730012817E+02
0.303689400241231E+02
0.302051912335640E+02
0.300041438027635E+02
0.297681333366724E+02
0.294998759883484E+02
0.292024255205007E+02
0.288791264863401E+02
0.285335647500726E+02
0.281695165627316E+02
0.277908973569219E+02
0.274017113303323E+02
0.270060027604113E+02
0.266078098405610E+02
0.302622996627011E+02
0.302194381505402E+02
0.301342214267250E+02
0.300076534830769E+02
0.298412190475503E+02
0.296368587965582E+02
0.293969374736221E+02
0.291242058430605E+02
0.288217575537325E+02
0.284929820851127E+02
0.281415149937727E+02
0.277711866732860E+02
0.273859707881505E+02
0.269899334485004E+02
0.265871840650782E+02
0.261818286723939E+02
0.299009358229122E+02
0.298573719034839E+02
0.297707564214966E+02
0.296421054508444E+02
0.294729217657264E+02
0.292651699600487E+02
0.290212444409434E+02
0.287439312239042E+02
0.284363646028788E+02
0.281019798654188E+02
0.277444632682781E+02
0.273677004833549E+02
0.269757246711350E+02
0.265726652448714E+02
0.261626982616275E+02
0.257499992253087E+02
0.295389862006666E+02
0.294947103193871E+02
0.294066770121399E+02
0.292759145205215E+02
0.291039437970221E+02
0.288927535356292E+02
0.286447680453899E+02
0.283628088929462E+02
0.280500513853823E+02
0.277099770609315E+02
0.273463233998433E+02
0.269630319617438E+02
0.265641961027690E+02
0.261540093317336E+02
0.257367152377101E+02
0.253165597709813E+02
0.333542048419431E+02
0.333170367894443E+02
0.332431564105082E+02
0.331334668660553E+02
0.329893024320391E+02
0.328124046635788E+02
0.326048917812540E+02
0.323692222087481E+02
0.321081533392114E+02
0.318246967075556E+02
0.315220707946568E+02
0.312036526873361E+02
0.308729297679225E+02
0.305334525145683E+02
0.301887893655751E+02
0.298424844464930E+02
0.332967205059349E+02
0.332594514098964E+02
0.331853698647952E+02
0.330753808666405E+02
0.329308214272224E+02
0.327534367182234E+02
0.325453494310243E+02
0.323090232815310E+02
0.320472217375280E+02
0.317629631458841E+02
0.314594734856649E+02
0.311401379710555E+02
0.308084526778969E+02
0.304679772749722E+02
0.301222898132672E+02
0.297749443719616E+02
0.332016803236372E+02
0.331642437947789E+02
0.330898289081477E+02
0.329793436968936E+02
0.328341297009024E+02
0.326559380779830E+02
0.324468989201023E+02
0.322094847042121E+02
0.319464689553847E+02
0.316608812997527E+02
0.313559601334207E+02
0.310351041312922E+02
0.307018237695884E+02
0.303596939431281E+02
0.300123086305161E+02
0.296632384059713E+02
0.330702202965422E+02
0.330325513985479E+02
0.329576738849793E+02
0.328464999964623E+02
0.327003775462193E+02
0.325210659860838E+02
0.323107056629286E+02
0.320717811953314E+02
0.318070800484577E+02
0.315196474848591E+02
0.312127391174741E+02
0.308897722887922E+02
0.305542774498864E+02
0.302098506202465E+02
0.298601078814248E+02
0.295086427031573E+02
0.329039021720096E+02
0.328659379894482E+02
0.327904725832414E+02
0.326784235280051E+02
0.325311465905650E+02
0.323504117394388E+02
0.321383723263756E+02
0.318975283700903E+02
0.316306850204567E+02
0.313409073810619E+02
0.310314729164970E+02
0.307058226683060E+02
0.303675124531400E+02
0.300201651238176E+02
0.296674248460665E+02
0.293129141894762E+02
0.327046858745864E+02
0.326663660676661E+02
0.325901926265300E+02
0.324770895309387E+02
0.323284220994846E+02
0.321459729322823E+02
0.319319110039622E+02
0.316887548374269E+02
0.314193308368986E+02
0.311267279583257E+02
0.308142499435392E+02
0.304853663419393E+02
0.301436634929744E+02
0.297927965497410E+02
0.294364434961099E+02
0.290782619556698E+02
0.324748955536380E+02
0.324361628961491E+02
0.323591674716415E+02
0.322448406699826E+02
0.320945588614961E+02
0.319101192638772E+02
0.316937089346462E+02
0.314478678198836E+02
0.311754469379893E+02
0.308795628766053E+02
0.305635498289932E+02
0.302309103933512E+02
0.298852663078728E+02
0.295303102013162E+02
0.291697593109437E+02
0.288073119657386E+02
0.322171802688212E+02
0.321779811656775E+02
0.321000570332616E+02
0.319843476003167E+02
0.318322416757812E+02
0.316455529323695E+02
0.314264887883376E+02
0.311776133183932E+02
0.309018052726000E+02
0.306022123813570E+02
0.302822031724676E+02
0.299453175232858E+02
0.295952171200538E+02
0.292356369034051E+02
0.288703384511216E+02
0.285030660954844E+02
0.319344704603503E+02
0.318947554411701E+02
0.318158040828282E+02
0.316985652964547E+02
0.315444415898976E+02
0.313552647619347E+02
0.311332646651924E+02
0.308810319688298E+02
0.306014759998065E+02
0.302977788405624E+02
0.299733469086281E+02
0.296317612403968E+02
0.292767276502042E+02
0.289120278426096E+02
0.285414724279291E+02
0.281688566375623E+02
0.316299314254434E+02
0.315896556106150E+02
0.315095876429495E+02
0.313906863661810E+02
0.312343691087690E+02
0.310424872842991E+02
0.308172950294623E+02
0.305614118106305E+02
0.302777800776140E+02
0.299696191419496E+02
0.296403765044623E+02
0.292936778532671E+02
0.289332769020605E+02
0.285630061451825E+02
0.281867294781448E+02
0.278082974791065E+02
0.313069150445538E+02
0.312660385801867E+02
0.311847746208510E+02
0.310640925928665E+02
0.309054256180191E+02
0.307106460173148E+02
0.304820338200301E+02
0.302222392088478E+02
0.299342399792028E+02
0.296212951894234E+02
0.292868962253146E+02
0.289347164989311E+02
0.285685609497179E+02
0.281923164227105E+02
0.278099038707845E+02
0.274252331750678E+02
0.309689109726472E+02
0.309273994307337E+02
0.308448708958616E+02
0.307223059208913E+02
0.305611542359521E+02
0.303633101543018E+02
0.301310809505339E+02
0.298671491414773E+02
0.295745297471812E+02
0.292565237074908E+02
0.289166686764024E+02
0.285586884121303E+02
0.281864419289824E+02
0.278038734835348E+02
0.274149643400048E+02
0.270236871072326E+02
0.306194984362361E+02
0.305773231762241E+02
0.304934730012817E+02
0.303689400241231E+02
0.302051912335640E+02
0.300041438027635E+02
0.297681333366724E+02
0.294998759883484E+02
0.292024255205007E+02
0.288791264863401E+02
0.285335647500726E+02
0.281695165627316E+02
0.277908973569219E+02
0.274017113303323E+02
0.270060027604113E+02
0.266078098405610E+02
0.302622996627011E+02
0.302194381505402E+02
0.301342214267250E+02
0.300076534830769E+02
0.298412190475503E+02
0.296368587965582E+02
0.293969374736221E+02
0.291242058430605E+02
0.288217575537325E+02
0.284929820851127E+02
0.281415149937727E+02
0.277711866732860E+02
0.273859707881505E+02
0.269899334485004E+02
0.265871840650782E+02
0.261818286723939E+02
0.299009358229122E+02
0.298573719034839E+02
0.297707564214966E+02
0.296421054508444E+02
0.294729217657264E+02
0.292651699600487E+02
0.290212444409434E+02
0.287439312239042E+02
0.284363646028788E+02
0.281019798654188E+02
0.277444632682781E+02
0.273677004833549E+02
0.269757246711350E+02
0.265726652448714E+02
0.261626982616275E+02
0.257499992253087E+02
0.295389862006666E+02
0.294947103193871E+02
0.294066770121399E+02
0.292759145205215E+02
0.291039437970221E+02
0.288927535356292E+02
0.286447680453899E+02
0.283628088929462E+02
0.280500513853823E+02
0.277099770609315E+02
0.273463233998433E+02
0.269630319617438E+02
0.265641961027690E+02
0.261540093317336E+02
0.257367152377101E+02
0.253165597709813E+02
0.333542048419431E+02
0.333170367894443E+02
0.332431564105082E+02
0.331334668660553E+02
0.329893024320391E+02
0.328124046635788E+02
0.326048917812540E+02
0.323692222087481E+02
0.321081533392114E+02
0.318246967075556E+02
0.315220707946568E+02
0.312036526873361E+02
0.308729297679225E+02
0.305334525145683E+02
0.301887893655751E+02
0.298424844464930E+02
0.332967205059349E+02
0.332594514098964E+02
0.331853698647952E+02
0.330753808666405E+02
0.329308214272224E+02
0.327534367182234E+02
0.325453494310243E+02
0.323090232815310E+02
0.320472217375280E+02
0.317629631458841E+02
0.314594734856649E+02
0.311401379710555E+02
0.308084526778969E+02
0.304679772749722E+02
0.301222898132672E+02
0.297749443719616E+02
0.332016803236372E+02
0.331642437947789E+02
0.330898289081477E+02
0.329793436968936E+02
0.328341297009024E+02
0.326559380779830E+02
0.324468989201023E+02
0.322094847042121E+02
0.319464689553847E+02
0.316608812997527E+02
0.313559601334207E+02
0.310351041312922E+02
0.307018237695884E+02
0.303596939431281E+02
0.300123086305161E+02
0.296632384059713E+02
0.330702202965422E+02
0.330325513985479E+02
0.329576738849793E+02
0.328464999964623E+02
0.327003775462193E+02
0.325210659860838E+02
0.323107056629286E+02
0.320717811953314E+02
0.318070800484577E+02
0.315196474848591E+02
0.312127391174741E+02
0.308897722887922E+02
0.305542774498864E+02
0.302098506202465E+02
0.298601078814248E+02
0.295086427031573E+02
0.329039021720096E+02
0.328659379894482E+02
0.327904725832414E+02
0.326784235280051E+02
0.325311465905650E+02
0.323504117394388E+02
0.321383723263756E+02
0.318975283700903E+02
0.316306850204567E+02
0.313409073810619E+02
0.310314729164970E+02
0.307058226683060E+02
0.303675124531400E+02
0.300201651238176E+02
0.296674248460665E+02
0.293129141894762E+02
0.327046858745864E+02
0.326663660676661E+02
0.325901926265300E+02
0.324770895309387E+02
0.323284220994846E+02
0.321459729322823E+02
0.319319110039622E+02
0.316887548374269E+02
0.314193308368986E+02
0.311267279583257E+02
0.308142499435392E+02
0.304853663419393E+02
0.301436634929744E+02
0.297927965497410E+02
0.294364434961099E+02
0.290782619556698E+02
0.324748955536380E+02
0.324361628961491E+02
0.323591674716415E+02
0.322448406699826E+02
0.320945588614961E+02
0.319101192638772E+02
0.316937089346462E+02
0.314478678198836E+02
0.311754469379893E+02
0.308795628766053E+02
0.305635498289932E+02
0.302309103933512E+02
0.298852663078728E+02
0.295303102013162E+02
0.291697593109437E+02
0.288073119657386E+02
0.322171802688212E+02
0.321779811656775E+02
0.321000570332616E+02
0.319843476003167E+02
0.318322416757812E+02
0.316455529323695E+02
0.314264887883376E+02
0.311776133183932E+02
0.309018052726000E+02
0.306022123813570E+02
0.302822031724676E+02
0.299453175232858E+02
0.295952171200538E+02
0.292356369034051E+02
0.288703384511216E+02
0.285030660954844E+02
0.319344704603503E+02
0.318947554411701E+02
0.318158040828282E+02
0.316985652964547E+02
0.315444415898976E+02
0.313552647619347E+02
0.311332646651924E+02
0.308810319688298E+02
0.306014759998065E+02
0.302977788405624E+02
0.299733469086281E+02
0.296317612403968E+02
0.292767276502042E+02
0.289120278426096E+02
0.285414724279291E+02
0.281688566375623E+02
0.316299314254434E+02
0.315896556106150E+02
0.315095876429495E+02
0.313906863661810E+02
0.312343691087690E+02
0.310424872842991E+02
0.308172950294623E+02
0.305614118106305E+02
0.302777800776140E+02
0.299696191419496E+02
0.296403765044623E+02
0.292936778532671E+02
0.289332769020605E+02
0.285630061451825E+02
0.281867294781448E+02
0.278082974791065E+02
0.313069150445538E+02
0.312660385801867E+02
0.311847746208510E+02
0.310640925928665E+02
0.309054256180191E+02
0.307106460173148E+02
0.304820338200301E+02
0.302222392088478E+02
0.299342399792028E+02
0.296212951894234E+02
0.292868962253146E+02
0.289347164989311E+02
0.285685609497179E+02
0.281923164227105E+02
0.278099038707845E+02
0.274252331750678E+02
0.309689109726472E+02
0.309273994307337E+02
0.308448708958616E+02
0.307223059208913E+02
0.305611542359521E+02
0.303633101543018E+02
0.301310809505339E+02
0.298671491414773E+02
0.295745297471812E+02
0.292565237074908E+02
0.289166686764024E+02
0.285586884121303E+02
0.281864419289824E+02
0.278038734835348E+02
0.274149643400048E+02
0.270236871072326E+02
0.306194984362361E+02
0.305773231762241E+02
0.304934730012817E+02
0.303689400241231E+02
0.302051912335640E+02
0.300041438027635E+02
0.297681333366724E+02
0.294998759883484E+02
0.292024255205007E+02
0.288791264863401E+02
0.285335647500726E+02
0.281695165627316E+02
0.277908973569219E+02
0.274017113303323E+02
0.270060027604113E+02
0.266078098405610E+02
0.302622996627011E+02
0.302194381505402E+02
0.301342214267250E+02
0.300076534830769E+02
0.298412190475503E+02
0.296368587965582E+02
0.293969374736221E+02
0.291242058430605E+02
0.288217575537325E+02
0.284929820851127E+02
0.281415149937727E+02
0.277711866732860E+02
0.273859707881505E+02
0.269899334485004E+02
0.265871840650782E+02
0.261818286723939E+02
0.299009358229122E+02
0.298573719034839E+02
0.297707564214966E+02
0.296421054508444E+02
0.294729217657264E+02
0.292651699600487E+02
0.290212444409434E+02
0.287439312239042E+02
0.284363646028788E+02
0.281019798654188E+02
0.277444632682781E+02
0.273677004833549E+02
0.269757246711350E+02
0.265726652448714E+02
0.261626982616275E+02
0.257499992253087E+02
0.295389862006666E+02
0.294947103193871E+02
0.294066770121399E+02
0.292759145205215E+02
0.291039437970221E+02
0.288927535356292E+02
0.286447680453899E+02
0.283628088929462E+02
0.280500513853823E+02
0.277099770609315E+02
0.273463233998433E+02
0.269630319617438E+02
0.265641961027690E+02
0.261540093317336E+02
0.257367152377101E+02
0.253165597709813E+02
</DataArray>
</PointData>
</Piece>
</RectilinearGrid>
</VTKFile>
