<?xml version="1.0"?>
<VTKFile type="RectilinearGrid" version="0.1" byte_order="LittleEndian">
<RectilinearGrid WholeExtent="0   63    0   63    0    3">
<Piece Extent="0   63    0   63    0    3">
<Coordinates>
<DataArray Name="x" type="Float32" format="ascii">
0.000000000000000E+00
0.100000000000000E+00
0.200000000000000E+00
0.300000000000000E+00
0.400000000000000E+00
0.500000000000000E+00
0.600000000000000E+00
0.700000000000000E+00
0.800000000000000E+00
0.900000000000000E+00
0.100000000000000E+01
0.110000000000000E+01
0.120000000000000E+01
0.130000000000000E+01
0.140000000000000E+01
0.150000000000000E+01
0.160000000000000E+01
0.170000000000000E+01
0.180000000000000E+01
0.190000000000000E+01
0.200000000000000E+01
0.210000000000000E+01
0.220000000000000E+01
0.230000000000000E+01
0.240000000000000E+01
0.250000000000000E+01
0.260000000000000E+01
0.270000000000000E+01
0.280000000000000E+01
0.290000000000000E+01
0.300000000000000E+01
0.310000000000000E+01
0.320000000000000E+01
0.330000000000000E+01
0.340000000000000E+01
0.350000000000000E+01
0.360000000000000E+01
0.370000000000000E+01
0.380000000000000E+01
0.390000000000000E+01
0.400000000000000E+01
0.410000000000000E+01
0.420000000000000E+01
0.430000000000000E+01
0.440000000000000E+01
0.450000000000000E+01
0.460000000000000E+01
0.470000000000000E+01
0.480000000000000E+01
0.490000000000000E+01
0.500000000000000E+01
0.510000000000000E+01
0.520000000000000E+01
0.530000000000000E+01
0.540000000000000E+01
0.550000000000000E+01
0.560000000000000E+01
0.570000000000000E+01
0.580000000000000E+01
0.590000000000000E+01
0.600000000000000E+01
0.610000000000000E+01
0.620000000000000E+01
0.630000000000000E+01
</DataArray>
<DataArray Name="y" type="Float32" format="ascii">
0.000000000000000E+00
0.100000000000000E+00
0.200000000000000E+00
0.300000000000000E+00
0.400000000000000E+00
0.500000000000000E+00
0.600000000000000E+00
0.700000000000000E+00
0.800000000000000E+00
0.900000000000000E+00
0.100000000000000E+01
0.110000000000000E+01
0.120000000000000E+01
0.130000000000000E+01
0.140000000000000E+01
0.150000000000000E+01
0.160000000000000E+01
0.170000000000000E+01
0.180000000000000E+01
0.190000000000000E+01
0.200000000000000E+01
0.210000000000000E+01
0.220000000000000E+01
0.230000000000000E+01
0.240000000000000E+01
0.250000000000000E+01
0.260000000000000E+01
0.270000000000000E+01
0.280000000000000E+01
0.290000000000000E+01
0.300000000000000E+01
0.310000000000000E+01
0.320000000000000E+01
0.330000000000000E+01
0.340000000000000E+01
0.350000000000000E+01
0.360000000000000E+01
0.370000000000000E+01
0.380000000000000E+01
0.390000000000000E+01
0.400000000000000E+01
0.410000000000000E+01
0.420000000000000E+01
0.430000000000000E+01
0.440000000000000E+01
0.450000000000000E+01
0.460000000000000E+01
0.470000000000000E+01
0.480000000000000E+01
0.490000000000000E+01
0.500000000000000E+01
0.510000000000000E+01
0.520000000000000E+01
0.530000000000000E+01
0.540000000000000E+01
0.550000000000000E+01
0.560000000000000E+01
0.570000000000000E+01
0.580000000000000E+01
0.590000000000000E+01
0.600000000000000E+01
0.610000000000000E+01
0.620000000000000E+01
0.630000000000000E+01
</DataArray>
<DataArray Name="z" type="Float32" format="ascii">
0.000000000000000E+00
0.100000000000000E+00
0.200000000000000E+00
0.300000000000000E+00
</DataArray>
</Coordinates>
<PointData Scalars="c">
<DataArray type="Float32" Name="c" format="ascii">
0.448574970288864E+02
0.441564600847932E+02
0.434673998299145E+02
0.427909086930643E+02
0.421276069112212E+02
0.414781428776669E+02
0.408431932842572E+02
0.402234630161445E+02
0.396196847533600E+02
0.390326182301957E+02
0.384630491005685E+02
0.379117873558475E+02
0.373796652413856E+02
0.368675346196531E+02
0.363762637319028E+02
0.359067333171804E+02
0.354598320576687E+02
0.350364513331812E+02
0.346374792853068E+02
0.342637942132575E+02
0.339162573486077E+02
0.335957050842035E+02
0.333029407625799E+02
0.330387261598206E+02
0.328037728301841E+02
0.325987335029158E+02
0.324241937432890E+02
0.322806641028714E+02
0.321685729874309E+02
0.320882604633596E+02
0.320399732043688E+02
0.320238607496942E+02
0.320399732043688E+02
0.320882604633596E+02
0.321685729874309E+02
0.322806641028714E+02
0.324241937432890E+02
0.325987335029158E+02
0.328037728301841E+02
0.330387261598206E+02
0.333029407625799E+02
0.335957050842035E+02
0.339162573486077E+02
0.342637942132575E+02
0.346374792853068E+02
0.350364513331812E+02
0.354598320576687E+02
0.359067333171804E+02
0.363762637319028E+02
0.368675346196531E+02
0.373796652413856E+02
0.379117873558475E+02
0.384630491005685E+02
0.390326182301957E+02
0.396196847533600E+02
0.402234630161445E+02
0.408431932842572E+02
0.414781428776669E+02
0.421276069112212E+02
0.427909086930643E+02
0.434673998299145E+02
0.441564600847932E+02
0.448574970288864E+02
0.453976322933226E+02
0.441564600847932E+02
0.434438458287712E+02
0.427430239715785E+02
0.420545984230377E+02
0.413792032220526E+02
0.407175031158286E+02
0.400701939379350E+02
0.394380027390441E+02
0.388216876190424E+02
0.382220372043607E+02
0.376398697101343E+02
0.370760315235805E+02
0.365313952432368E+02
0.360068571089923E+02
0.355033337607841E+02
0.350217582700400E+02
0.345630753980864E+02
0.341282360503347E+02
0.337181909145434E+02
0.333338832959788E+02
0.329762411917154E+02
0.326461686800135E+02
0.323445367375937E+02
0.320721736360335E+02
0.318298551062500E+02
0.316182944944766E+02
0.314381331613588E+02
0.312899313948585E+02
0.311741601148795E+02
0.310911936408850E+02
0.310413037721569E+02
0.310246553938628E+02
0.310413037721569E+02
0.310911936408850E+02
0.311741601148795E+02
0.312899313948585E+02
0.314381331613588E+02
0.316182944944766E+02
0.318298551062500E+02
0.320721736360335E+02
0.323445367375937E+02
0.326461686800135E+02
0.329762411917154E+02
0.333338832959788E+02
0.337181909145434E+02
0.341282360503347E+02
0.345630753980864E+02
0.350217582700400E+02
0.355033337607841E+02
0.360068571089923E+02
0.365313952432368E+02
0.370760315235805E+02
0.376398697101343E+02
0.382220372043607E+02
0.388216876190424E+02
0.394380027390441E+02
0.400701939379350E+02
0.407175031158286E+02
0.413792032220526E+02
0.420545984230377E+02
0.427430239715785E+02
0.434438458287712E+02
0.441564600847932E+02
0.447052700564186E+02
0.434673998299145E+02
0.427430239715785E+02
0.420302333914981E+02
0.413296423723293E+02
0.406418977270597E+02
0.399676796419342E+02
0.393077023279011E+02
0.386627144300450E+02
0.380334991378930E+02
0.374208739329923E+02
0.368256899041063E+02
0.362488305552065E+02
0.356912100276996E+02
0.351537706566981E+02
0.346374797823761E+02
0.341433257423991E+02
0.336723129809410E+02
0.332254562247360E+02
0.328037736976392E+02
0.324082793727319E+02
0.320399742951327E+02
0.316998370488760E+02
0.313888134863303E+02
0.311078058867424E+02
0.308576617589372E+02
0.306391625486066E+02
0.304530125491514E+02
0.302998283426640E+02
0.301801291106272E+02
0.300943281492277E+02
0.300427259000923E+02
0.300255047635679E+02
0.300427259000923E+02
0.300943281492277E+02
0.301801291106272E+02
0.302998283426640E+02
0.304530125491514E+02
0.306391625486066E+02
0.308576617589372E+02
0.311078058867424E+02
0.313888134863303E+02
0.316998370488760E+02
0.320399742951327E+02
0.324082793727319E+02
0.328037736976392E+02
0.332254562247360E+02
0.336723129809410E+02
0.341433257423991E+02
0.346374797823761E+02
0.351537706566981E+02
0.356912100276996E+02
0.362488305552065E+02
0.368256899041063E+02
0.374208739329923E+02
0.380334991378930E+02
0.386627144300450E+02
0.393077023279011E+02
0.399676796419342E+02
0.406418977270597E+02
0.413296423723293E+02
0.420302333914981E+02
0.427430239715785E+02
0.434673998299145E+02
0.440250105125704E+02
0.427909086930643E+02
0.420545984230377E+02
0.413296423723293E+02
0.406166638671067E+02
0.399163212272979E+02
0.392293089075000E+02
0.385563584620890E+02
0.378982392799432E+02
0.372557590259766E+02
0.366297637182749E+02
0.360211373613860E+02
0.354308010487206E+02
0.348597114407045E+02
0.343088585210716E+02
0.337792625324515E+02
0.332719699952570E+02
0.327880487219914E+02
0.323285817536523E+02
0.318946601669894E+02
0.314873747317941E+02
0.311078064365498E+02
0.307570159483688E+02
0.304360321280768E+02
0.301458397814366E+02
0.298873668896120E+02
0.296614716218038E+02
0.294689294854787E+02
0.293104210092819E+02
0.291865203752937E+02
0.290976854163365E+02
0.290442493677324E+02
0.290264147106340E+02
0.290442493677324E+02
0.290976854163365E+02
0.291865203752937E+02
0.293104210092819E+02
0.294689294854787E+02
0.296614716218038E+02
0.298873668896120E+02
0.301458397814366E+02
0.304360321280768E+02
0.307570159483688E+02
0.311078064365498E+02
0.314873747317941E+02
0.318946601669894E+02
0.323285817536523E+02
0.327880487219914E+02
0.332719699952570E+02
0.337792625324515E+02
0.343088585210716E+02
0.348597114407045E+02
0.354308010487206E+02
0.360211373613860E+02
0.366297637182749E+02
0.372557590259766E+02
0.378982392799432E+02
0.385563584620890E+02
0.392293089075000E+02
0.399163212272979E+02
0.406166638671067E+02
0.413296423723293E+02
0.420545984230377E+02
0.427909086930643E+02
0.433574367626305E+02
0.421276069112212E+02
0.413792032220526E+02
0.406418977270597E+02
0.399163212272979E+02
0.392031420198475E+02
0.385030673720385E+02
0.378168448426581E+02
0.371452633920810E+02
0.364891542132347E+02
0.358493912047153E+02
0.352268909965425E+02
0.346226124284916E+02
0.340375553713623E+02
0.334727587738411E+02
0.329292978129203E+02
0.324082800255169E+02
0.319108403045034E+02
0.314381346554803E+02
0.309913326328715E+02
0.305716084067067E+02
0.301801304556762E+02
0.298180499378587E+02
0.294864878570077E+02
0.291865212171764E+02
0.289191684379645E+02
0.286853743814552E+02
0.284859954133257E+02
0.283217849772112E+02
0.281933801957074E+02
0.281012900168961E+02
0.280458853975341E+02
0.280273919515600E+02
0.280458853975341E+02
0.281012900168961E+02
0.281933801957074E+02
0.283217849772112E+02
0.284859954133257E+02
0.286853743814552E+02
0.289191684379645E+02
0.291865212171764E+02
0.294864878570077E+02
0.298180499378587E+02
0.301801304556762E+02
0.305716084067067E+02
0.309913326328715E+02
0.314381346554803E+02
0.319108403045034E+02
0.324082800255169E+02
0.329292978129203E+02
0.334727587738411E+02
0.340375553713623E+02
0.346226124284916E+02
0.352268909965425E+02
0.358493912047153E+02
0.364891542132347E+02
0.371452633920810E+02
0.378168448426581E+02
0.385030673720385E+02
0.392031420198475E+02
0.399163212272979E+02
0.406418977270597E+02
0.413792032220526E+02
0.421276069112212E+02
0.427031580109927E+02
0.414781428776669E+02
0.407175031158286E+02
0.399676796419342E+02
0.392293089075000E+02
0.385030673720385E+02
0.377896733461513E+02
0.370898887126234E+02
0.364045204649028E+02
0.357344219903667E+02
0.350804940127332E+02
0.344436850941693E+02
0.338249915835766E+02
0.332254568839215E+02
0.326461698993374E+02
0.320882625133728E+02
0.315529059448595E+02
0.310413058293737E+02
0.305546958843839E+02
0.300943300372052E+02
0.296614729289883E+02
0.292573887568871E+02
0.288833284811276E+02
0.285405155035132E+02
0.282301300167292E+02
0.279532923253379E+02
0.277110455429909E+02
0.275043381674769E+02
0.273340071156111E+02
0.272007618530976E+02
0.271051702707558E+02
0.270476469308976E+02
0.270284442332543E+02
0.270476469308976E+02
0.271051702707558E+02
0.272007618530976E+02
0.273340071156111E+02
0.275043381674769E+02
0.277110455429909E+02
0.279532923253379E+02
0.282301300167292E+02
0.285405155035132E+02
0.288833284811276E+02
0.292573887568871E+02
0.296614729289883E+02
0.300943300372052E+02
0.305546958843839E+02
0.310413058293737E+02
0.315529059448595E+02
0.320882625133728E+02
0.326461698993374E+02
0.332254568839215E+02
0.338249915835766E+02
0.344436850941693E+02
0.350804940127332E+02
0.357344219903667E+02
0.364045204649028E+02
0.370898887126234E+02
0.377896733461513E+02
0.385030673720385E+02
0.392293089075000E+02
0.399676796419342E+02
0.407175031158286E+02
0.414781428776669E+02
0.420628097579999E+02
0.408431932842572E+02
0.400701939379350E+02
0.393077023279011E+02
0.385563584620890E+02
0.378168448426581E+02
0.370898887126234E+02
0.363762642208665E+02
0.356767944436681E+02
0.349923531868904E+02
0.343238664772458E+02
0.336723136339445E+02
0.330387277938431E+02
0.324241957447460E+02
0.318298569038050E+02
0.312569012625094E+02
0.307065661085133E+02
0.301801313299568E+02
0.296789131128843E+02
0.292042558600331E+02
0.287575221929025E+02
0.283400809515159E+02
0.279532931796646E+02
0.275984961781524E+02
0.272769858228496E+02
0.269899974735594E+02
0.267386859358244E+02
0.265241050696950E+02
0.263471877533489E+02
0.262087269903454E+02
0.261093589830120E+02
0.260495489700383E+02
0.260295805383832E+02
0.260495489700383E+02
0.261093589830120E+02
0.262087269903454E+02
0.263471877533489E+02
0.265241050696950E+02
0.267386859358244E+02
0.269899974735594E+02
0.272769858228496E+02
0.275984961781524E+02
0.279532931796646E+02
0.283400809515159E+02
0.287575221929025E+02
0.292042558600331E+02
0.296789131128843E+02
0.301801313299568E+02
0.307065661085133E+02
0.312569012625094E+02
0.318298569038050E+02
0.324241957447460E+02
0.330387277938431E+02
0.336723136339445E+02
0.343238664772458E+02
0.349923531868904E+02
0.356767944436681E+02
0.363762642208665E+02
0.370898887126234E+02
0.378168448426581E+02
0.385563584620890E+02
0.393077023279011E+02
0.400701939379350E+02
0.408431932842572E+02
0.414370537856018E+02
0.402234630161445E+02
0.394380027390441E+02
0.386627144300450E+02
0.378982392799432E+02
0.371452633920810E+02
0.364045204649028E+02
0.356767944436681E+02
0.349629220799946E+02
0.342637953218808E+02
0.335803634384192E+02
0.329136347626341E+02
0.322646779130875E+02
0.316346223307246E+02
0.310246579429317E+02
0.304360337435493E+02
0.298700550578552E+02
0.293280792482430E+02
0.288115096131428E+02
0.283217872429442E+02
0.278603806269431E+02
0.274287728592038E+02
0.270284463724789E+02
0.266608652400224E+02
0.263274552245488E+02
0.260295819171292E+02
0.257685274872139E+02
0.255454667439683E+02
0.253614433701346E+02
0.252173473114627E+02
0.251138943663736E+02
0.250516090047363E+02
0.250308113418327E+02
0.250516090047363E+02
0.251138943663736E+02
0.252173473114627E+02
0.253614433701346E+02
0.255454667439683E+02
0.257685274872139E+02
0.260295819171292E+02
0.263274552245488E+02
0.266608652400224E+02
0.270284463724789E+02
0.274287728592038E+02
0.278603806269431E+02
0.283217872429442E+02
0.288115096131428E+02
0.293280792482430E+02
0.298700550578552E+02
0.304360337435493E+02
0.310246579429317E+02
0.316346223307246E+02
0.322646779130875E+02
0.329136347626341E+02
0.335803634384192E+02
0.342637953218808E+02
0.349629220799946E+02
0.356767944436681E+02
0.364045204649028E+02
0.371452633920810E+02
0.378982392799432E+02
0.386627144300450E+02
0.394380027390441E+02
0.402234630161445E+02
0.408265778979613E+02
0.396196847533600E+02
0.388216876190424E+02
0.380334991378930E+02
0.372557590259766E+02
0.364891542132347E+02
0.357344219903667E+02
0.349923531868904E+02
0.342637953218808E+02
0.335496556510098E+02
0.328509040123563E+02
0.321685753489038E+02
0.315037717578214E+02
0.308576638859622E+02
0.302314914584653E+02
0.296265626944922E+02
0.290442523333890E+02
0.284859979693422E+02
0.279532943773955E+02
0.274476855140960E+02
0.269707538984955E+02
0.265241071305766E+02
0.261093613907855E+02
0.257281218908866E+02
0.253819604142013E+02
0.250723902888006E+02
0.248008393701530E+02
0.245686218523536E+02
0.243769099544928E+02
0.242267067109594E+02
0.241188212002897E+02
0.240538475495827E+02
0.240321489337539E+02
0.240538475495827E+02
0.241188212002897E+02
0.242267067109594E+02
0.243769099544928E+02
0.245686218523536E+02
0.248008393701530E+02
0.250723902888006E+02
0.253819604142013E+02
0.257281218908866E+02
0.261093613907855E+02
0.265241071305766E+02
0.269707538984955E+02
0.274476855140960E+02
0.279532943773955E+02
0.284859979693422E+02
0.290442523333890E+02
0.296265626944922E+02
0.302314914584653E+02
0.308576638859622E+02
0.315037717578214E+02
0.321685753489038E+02
0.328509040123563E+02
0.335496556510098E+02
0.342637953218808E+02
0.349923531868904E+02
0.357344219903667E+02
0.364891542132347E+02
0.372557590259766E+02
0.380334991378930E+02
0.388216876190424E+02
0.396196847533600E+02
0.402320953756232E+02
0.390326182301957E+02
0.382220372043607E+02
0.374208739329923E+02
0.366297637182749E+02
0.358493912047153E+02
0.350804940127332E+02
0.343238664772458E+02
0.335803634384192E+02
0.328509040123563E+02
0.321364752458678E+02
0.314381355312202E+02
0.307570176236913E+02
0.300943310670092E+02
0.294513637899724E+02
0.288294825931488E+02
0.282301321999622E+02
0.276548325054355E+02
0.271051736236724E+02
0.265828083188373E+02
0.260894414125700E+02
0.256268158032859E+02
0.251966948197401E+02
0.248008407712938E+02
0.244409897556835E+02
0.241188230406050E+02
0.238359356379082E+02
0.235938030173422E+02
0.233937472277201E+02
0.232369039648053E+02
0.231241923006981E+02
0.230562888265581E+02
0.230336078302578E+02
0.230562888265581E+02
0.231241923006981E+02
0.232369039648053E+02
0.233937472277201E+02
0.235938030173422E+02
0.238359356379082E+02
0.241188230406050E+02
0.244409897556835E+02
0.248008407712938E+02
0.251966948197401E+02
0.256268158032859E+02
0.260894414125700E+02
0.265828083188373E+02
0.271051736236724E+02
0.276548325054355E+02
0.282301321999622E+02
0.288294825931488E+02
0.294513637899724E+02
0.300943310670092E+02
0.307570176236913E+02
0.314381355312202E+02
0.321364752458678E+02
0.328509040123563E+02
0.335803634384192E+02
0.343238664772458E+02
0.350804940127332E+02
0.358493912047153E+02
0.366297637182749E+02
0.374208739329923E+02
0.382220372043607E+02
0.390326182301957E+02
0.396543440992719E+02
0.384630491005685E+02
0.376398697101343E+02
0.368256899041063E+02
0.360211373613860E+02
0.352268909965425E+02
0.344436850941693E+02
0.336723136339445E+02
0.329136347626341E+02
0.321685753489038E+02
0.314381355312202E+02
0.307233931375511E+02
0.300255078173988E+02
0.293457246815677E+02
0.286853771931428E+02
0.280458889954005E+02
0.274287743009531E+02
0.268356364051334E+02
0.262681638313732E+02
0.257281235755347E+02
0.252173509009623E+02
0.247377351600234E+02
0.242912011962663E+02
0.238796860288374E+02
0.235051107489597E+02
0.231693478711325E+02
0.228741847713208E+02
0.226212842866167E+02
0.224121440031908E+02
0.222480561626200E+02
0.221300704017342E+02
0.220589616409124E+02
0.220352053007928E+02
0.220589616409124E+02
0.221300704017342E+02
0.222480561626200E+02
0.224121440031908E+02
0.226212842866167E+02
0.228741847713208E+02
0.231693478711325E+02
0.235051107489597E+02
0.238796860288374E+02
0.242912011962663E+02
0.247377351600234E+02
0.252173509009623E+02
0.257281235755347E+02
0.262681638313732E+02
0.268356364051334E+02
0.274287743009531E+02
0.280458889954005E+02
0.286853771931428E+02
0.293457246815677E+02
0.300255078173988E+02
0.307233931375511E+02
0.314381355312202E+02
0.321685753489038E+02
0.329136347626341E+02
0.336723136339445E+02
0.344436850941693E+02
0.352268909965425E+02
0.360211373613860E+02
0.368256899041063E+02
0.376398697101343E+02
0.384630491005685E+02
0.390940852972740E+02
0.379117873558475E+02
0.370760315235805E+02
0.362488305552065E+02
0.354308010487206E+02
0.346226124284916E+02
0.338249915835766E+02
0.330387277938431E+02
0.322646779130875E+02
0.315037717578214E+02
0.307570176236913E+02
0.300255078173988E+02
0.293104240493117E+02
0.286130424796831E+02
0.279347381489128E+02
0.272769884497740E+02
0.266413752184436E+02
0.260295849348851E+02
0.254434064377258E+02
0.248847254837850E+02
0.243555154315517E+02
0.238578233192266E+02
0.233937506632299E+02
0.229654284458714E+02
0.225749860127141E+02
0.222245139747228E+02
0.219160217060675E+02
0.216513906209788E+02
0.214323250493550E+02
0.212603031290573E+02
0.211365305902232E+02
0.210619005172663E+02
0.210369620527607E+02
0.210619005172663E+02
0.211365305902232E+02
0.212603031290573E+02
0.214323250493550E+02
0.216513906209788E+02
0.219160217060675E+02
0.222245139747228E+02
0.225749860127141E+02
0.229654284458714E+02
0.233937506632299E+02
0.238578233192266E+02
0.243555154315517E+02
0.248847254837850E+02
0.254434064377258E+02
0.260295849348851E+02
0.266413752184436E+02
0.272769884497740E+02
0.279347381489128E+02
0.286130424796831E+02
0.293104240493117E+02
0.300255078173988E+02
0.307570176236913E+02
0.315037717578214E+02
0.322646779130875E+02
0.330387277938431E+02
0.338249915835766E+02
0.346226124284916E+02
0.354308010487206E+02
0.362488305552065E+02
0.370760315235805E+02
0.379117873558475E+02
0.385521018704253E+02
0.373796652413856E+02
0.365313952432368E+02
0.356912100276996E+02
0.348597114407045E+02
0.340375553713623E+02
0.332254568839215E+02
0.324241957447460E+02
0.316346223307246E+02
0.308576638859622E+02
0.300943310670092E+02
0.293457246815677E+02
0.286130424796831E+02
0.278975857980083E+02
0.272007657851147E+02
0.265241088479734E+02
0.258692608567707E+02
0.252379895294073E+02
0.246321842937632E+02
0.240538528050477E+02
0.235051131931461E+02
0.229881810536291E+02
0.225053502059538E+02
0.220589663588422E+02
0.216513930826368E+02
0.212849699218693E+02
0.209619631007918E+02
0.206845100614645E+02
0.204545599660230E+02
0.202738131811401E+02
0.201436634914072E+02
0.200651471906718E+02
0.200389031308688E+02
0.200651471906718E+02
0.201436634914072E+02
0.202738131811401E+02
0.204545599660230E+02
0.206845100614645E+02
0.209619631007918E+02
0.212849699218693E+02
0.216513930826368E+02
0.220589663588422E+02
0.225053502059538E+02
0.229881810536291E+02
0.235051131931461E+02
0.240538528050477E+02
0.246321842937632E+02
0.252379895294073E+02
0.258692608567707E+02
0.265241088479734E+02
0.272007657851147E+02
0.278975857980083E+02
0.286130424796831E+02
0.293457246815677E+02
0.300943310670092E+02
0.308576638859622E+02
0.316346223307246E+02
0.324241957447460E+02
0.332254568839215E+02
0.340375553713623E+02
0.348597114407045E+02
0.356912100276996E+02
0.365313952432368E+02
0.373796652413856E+02
0.380291962479546E+02
0.368675346196531E+02
0.360068571089923E+02
0.351537706566981E+02
0.343088585210716E+02
0.334727587738411E+02
0.326461698993374E+02
0.318298569038050E+02
0.310246579429317E+02
0.302314914584653E+02
0.294513637899724E+02
0.286853771931428E+02
0.279347381489128E+02
0.272007657851147E+02
0.264849001512736E+02
0.257887099847448E+02
0.251138994807118E+02
0.244623134296811E+02
0.238359399175190E+02
0.232369096037001E+02
0.226674904200490E+02
0.221300763918830E+02
0.216271692151575E+02
0.211613512777908E+02
0.207352490495304E+02
0.203514862396671E+02
0.200126268749072E+02
0.197211094801015E+02
0.194791747877378E+02
0.192887907132751E+02
0.191515794898031E+02
0.190687525888626E+02
0.190410591140309E+02
0.190687525888626E+02
0.191515794898031E+02
0.192887907132751E+02
0.194791747877378E+02
0.197211094801015E+02
0.200126268749072E+02
0.203514862396671E+02
0.207352490495304E+02
0.211613512777908E+02
0.216271692151575E+02
0.221300763918830E+02
0.226674904200490E+02
0.232369096037001E+02
0.238359399175190E+02
0.244623134296811E+02
0.251138994807118E+02
0.257887099847448E+02
0.264849001512736E+02
0.272007657851147E+02
0.279347381489128E+02
0.286853771931428E+02
0.294513637899724E+02
0.302314914584653E+02
0.310246579429317E+02
0.318298569038050E+02
0.326461698993374E+02
0.334727587738411E+02
0.343088585210716E+02
0.351537706566981E+02
0.360068571089923E+02
0.368675346196531E+02
0.375261877312350E+02
0.363762637319028E+02
0.355033337607841E+02
0.346374797823761E+02
0.337792625324515E+02
0.329292978129203E+02
0.320882625133728E+02
0.312569012625094E+02
0.304360337435493E+02
0.296265626944922E+02
0.288294825931488E+02
0.280458889954005E+02
0.272769884497740E+02
0.265241088479734E+02
0.257887099847448E+02
0.250723939862433E+02
0.243769151191024E+02
0.237041883091921E+02
0.230562954793308E+02
0.224354885645834E+02
0.218441877973921E+02
0.212849736017985E+02
0.207605702439967E+02
0.202738193241887E+02
0.198276413506250E+02
0.194249841091783E+02
0.190687574177128E+02
0.187617551747096E+02
0.185065673273565E+02
0.183054863178730E+02
0.181604143980807E+02
0.180727795050202E+02
0.180434677312141E+02
0.180727795050202E+02
0.181604143980807E+02
0.183054863178730E+02
0.185065673273565E+02
0.187617551747096E+02
0.190687574177128E+02
0.194249841091783E+02
0.198276413506250E+02
0.202738193241887E+02
0.207605702439967E+02
0.212849736017985E+02
0.218441877973921E+02
0.224354885645834E+02
0.230562954793308E+02
0.237041883091921E+02
0.243769151191024E+02
0.250723939862433E+02
0.257887099847448E+02
0.265241088479734E+02
0.272769884497740E+02
0.280458889954005E+02
0.288294825931488E+02
0.296265626944922E+02
0.304360337435493E+02
0.312569012625094E+02
0.320882625133728E+02
0.329292978129203E+02
0.337792625324515E+02
0.346374797823761E+02
0.355033337607841E+02
0.363762637319028E+02
0.370439092862160E+02
0.359067333171804E+02
0.350217582700400E+02
0.341433257423991E+02
0.332719699952570E+02
0.324082800255169E+02
0.315529059448595E+02
0.307065661085133E+02
0.298700550578552E+02
0.290442523333890E+02
0.282301321999622E+02
0.274287743009531E+02
0.266413752184436E+02
0.258692608567707E+02
0.251138994807118E+02
0.243769151191024E+02
0.236601008812549E+02
0.229654315186713E+02
0.222950742917906E+02
0.216513968697825E+02
0.210369706099426E+02
0.204545671586618E+02
0.199071459407051E+02
0.193978298442811E+02
0.189298663912318E+02
0.185065720622594E+02
0.181312583921558E+02
0.178071400835983E+02
0.175372277180795E+02
0.173242104775358E+02
0.171703371853486E+02
0.170773062582731E+02
0.170461760776445E+02
0.170773062582731E+02
0.171703371853486E+02
0.173242104775358E+02
0.175372277180795E+02
0.178071400835983E+02
0.181312583921558E+02
0.185065720622594E+02
0.189298663912318E+02
0.193978298442811E+02
0.199071459407051E+02
0.204545671586618E+02
0.210369706099426E+02
0.216513968697825E+02
0.222950742917906E+02
0.229654315186713E+02
0.236601008812549E+02
0.243769151191024E+02
0.251138994807118E+02
0.258692608567707E+02
0.266413752184436E+02
0.274287743009531E+02
0.282301321999622E+02
0.290442523333890E+02
0.298700550578552E+02
0.307065661085133E+02
0.315529059448595E+02
0.324082800255169E+02
0.332719699952570E+02
0.341433257423991E+02
0.350217582700400E+02
0.359067333171804E+02
0.365832037526858E+02
0.354598320576687E+02
0.345630753980864E+02
0.336723129809410E+02
0.327880487219914E+02
0.319108403045034E+02
0.310413058293737E+02
0.301801313299568E+02
0.293280792482430E+02
0.284859979693422E+02
0.276548325054355E+02
0.268356364051334E+02
0.260295849348851E+02
0.252379895294073E+02
0.244623134296811E+02
0.237041883091921E+02
0.229654315186713E+02
0.222480633416636E+02
0.215543233325420E+02
0.208866843928958E+02
0.202478627284435E+02
0.196408212325229E+02
0.190687632122719E+02
0.185351128080746E+02
0.180434781196884E+02
0.175975931791982E+02
0.172012357891227E+02
0.168581201501544E+02
0.165717662842436E+02
0.163453523719198E+02
0.161815606882447E+02
0.160824317945252E+02
0.160492437083316E+02
0.160824317945252E+02
0.161815606882447E+02
0.163453523719198E+02
0.165717662842436E+02
0.168581201501544E+02
0.172012357891227E+02
0.175975931791982E+02
0.180434781196884E+02
0.185351128080746E+02
0.190687632122719E+02
0.196408212325229E+02
0.202478627284435E+02
0.208866843928958E+02
0.215543233325420E+02
0.222480633416636E+02
0.229654315186713E+02
0.237041883091921E+02
0.244623134296811E+02
0.252379895294073E+02
0.260295849348851E+02
0.268356364051334E+02
0.276548325054355E+02
0.284859979693422E+02
0.293280792482430E+02
0.301801313299568E+02
0.310413058293737E+02
0.319108403045034E+02
0.327880487219914E+02
0.336723129809410E+02
0.345630753980864E+02
0.354598320576687E+02
0.361449194484278E+02
0.350364513331812E+02
0.341282360503347E+02
0.332254562247360E+02
0.323285817536523E+02
0.314381346554803E+02
0.305546958843839E+02
0.296789131128843E+02
0.288115096131428E+02
0.279532943773955E+02
0.271051736236724E+02
0.262681638313732E+02
0.254434064377258E+02
0.246321842937632E+02
0.238359399175190E+02
0.230562954793308E+02
0.222950742917906E+02
0.215543233325420E+02
0.208363359752224E+02
0.201436736141105E+02
0.194791842175839E+02
0.188460150264671E+02
0.182476156535948E+02
0.176877268327142E+02
0.171703492005288E+02
0.166996860991596E+02
0.162800549173191E+02
0.159157634812875E+02
0.156109519020324E+02
0.153694061424153E+02
0.151943567301806E+02
0.150882829330549E+02
0.150527470419071E+02
0.150882829330549E+02
0.151943567301806E+02
0.153694061424153E+02
0.156109519020324E+02
0.159157634812875E+02
0.162800549173191E+02
0.166996860991596E+02
0.171703492005288E+02
0.176877268327142E+02
0.182476156535948E+02
0.188460150264671E+02
0.194791842175839E+02
0.201436736141105E+02
0.208363359752224E+02
0.215543233325420E+02
0.222950742917906E+02
0.230562954793308E+02
0.238359399175190E+02
0.246321842937632E+02
0.254434064377258E+02
0.262681638313732E+02
0.271051736236724E+02
0.279532943773955E+02
0.288115096131428E+02
0.296789131128843E+02
0.305546958843839E+02
0.314381346554803E+02
0.323285817536523E+02
0.332254562247360E+02
0.341282360503347E+02
0.350364513331812E+02
0.357299051593972E+02
0.346374792853068E+02
0.337181909145434E+02
0.328037736976392E+02
0.318946601669894E+02
0.309913326328715E+02
0.300943300372052E+02
0.292042558600331E+02
0.283217872429442E+02
0.274476855140960E+02
0.265828083188373E+02
0.257281235755347E+02
0.248847254837850E+02
0.240538528050477E+02
0.232369096037001E+02
0.224354885645834E+02
0.216513968697825E+02
0.208866843928958E+02
0.201436736141105E+02
0.194249901253678E+02
0.187335918277585E+02
0.180727938747042E+02
0.174462850651811E+02
0.168581297925142E+02
0.163127479908246E+02
0.158148641891112E+02
0.153694164534351E+02
0.149814176023598E+02
0.146557656180449E+02
0.143970082476345E+02
0.142090779025951E+02
0.140950248874247E+02
0.140567857699879E+02
0.140950248874247E+02
0.142090779025951E+02
0.143970082476345E+02
0.146557656180449E+02
0.149814176023598E+02
0.153694164534351E+02
0.158148641891112E+02
0.163127479908246E+02
0.168581297925142E+02
0.174462850651811E+02
0.180727938747042E+02
0.187335918277585E+02
0.194249901253678E+02
0.201436736141105E+02
0.208866843928958E+02
0.216513968697825E+02
0.224354885645834E+02
0.232369096037001E+02
0.240538528050477E+02
0.248847254837850E+02
0.257281235755347E+02
0.265828083188373E+02
0.274476855140960E+02
0.283217872429442E+02
0.292042558600331E+02