<?xml version="1.0"?>
<VTKFile type="RectilinearGrid" version="0.1" byte_order="LittleEndian">
<RectilinearGrid WholeExtent="0   63    0   63    0    3">
<Piece Extent="31   47   31   47    0    3">
<Coordinates>
<DataArray Name="x" type="Float32" format="ascii">
0.310000000000000E+01
0.320000000000000E+01
0.330000000000000E+01
0.340000000000000E+01
0.350000000000000E+01
0.360000000000000E+01
0.370000000000000E+01
0.380000000000000E+01
0.390000000000000E+01
0.400000000000000E+01
0.410000000000000E+01
0.420000000000000E+01
0.430000000000000E+01
0.440000000000000E+01
0.450000000000000E+01
0.460000000000000E+01
0.470000000000000E+01
</DataArray>
<DataArray Name="y" type="Float32" format="ascii">
0.310000000000000E+01
0.320000000000000E+01
0.330000000000000E+01
0.340000000000000E+01
0.350000000000000E+01
0.360000000000000E+01
0.370000000000000E+01
0.380000000000000E+01
0.390000000000000E+01
0.400000000000000E+01
0.410000000000000E+01
0.420000000000000E+01
0.430000000000000E+01
0.440000000000000E+01
0.450000000000000E+01
0.460000000000000E+01
0.470000000000000E+01
</DataArray>
<DataArray Name="z" type="Float32" format="ascii">
0.000000000000000E+00
0.100000000000000E+00
0.200000000000000E+00
0.300000000000000E+00
</DataArray>
</Coordinates>
<PointData Scalars="c">
<DataArray type="Float32" Name="c" format="ascii">
0.189158102024600E+02
0.189370136036184E+02
0.189914715825937E+02
0.190788017493036E+02
0.191983198508330E+02
0.193490452819417E+02
0.195297089235409E+02
0.197387632822720E+02
0.199743948993482E+02
0.202345389901289E+02
0.205168962670006E+02
0.208189518866253E+02
0.211379964481911E+02
0.214711489517465E+02
0.218153816049909E+02
0.221675463431327E+02
0.225244028999134E+02
0.189324958028204E+02
0.189536881486142E+02
0.190081159187479E+02
0.190953969909059E+02
0.192148475729950E+02
0.193654877077794E+02
0.195460491032919E+02
0.197549852623016E+02
0.199904838791823E+02
0.202504814658603E+02
0.205326801596457E+02
0.208345666542573E+02
0.211534331809292E+02
0.214864004489414E+02
0.218304424342009E+02
0.221824128807298E+02
0.225390733533923E+02
0.189823995914292E+02
0.190035588834419E+02
0.190578963362782E+02
0.191450306280949E+02
0.192642793444181E+02
0.194146644652258E+02
0.195949201712512E+02
0.198035029432301E+02
0.200386039229798E+02
0.202981634986157E+02
0.205798880673989E+02
0.208812689182649E+02
0.211996031616850E+02
0.215320166169754E+02
0.218754885464433E+02
0.222268781019608E+02
0.225829523229913E+02
0.190650637210707E+02
0.190861682965094E+02
0.191403562475722E+02
0.192272475771464E+02
0.193461621506983E+02
0.194961251543184E+02
0.196758748611390E+02
0.198838726805833E+02
0.201183154602325E+02
0.203771500036493E+02
0.206580897587994E+02
0.209586336203348E+02
0.212760867746608E+02
0.216075834991763E+02
0.219501118063381E+02
0.223005397993557E+02
0.226556435796867E+02
0.191797290788127E+02
0.192007578299003E+02
0.192547386224012E+02
0.193412932942355E+02
0.194597448692122E+02
0.196091229748708E+02
0.197881715536747E+02
0.199953588430327E+02
0.202288895951773E+02
0.204867195016712E+02
0.207665717787631E+02
0.210659558585479E+02
0.213821881165991E+02
0.217124145492349E+02
0.220536352928103E+02
0.224027308535259E+02
0.227564898895064E+02
0.193253412288451E+02
0.193462738157526E+02
0.193999919061089E+02
0.194861196638863E+02
0.196039841165843E+02
0.197526205221442E+02
0.199307800101841E+02
0.201369394743193E+02
0.203693136881691E+02
0.206258696116337E+02
0.209043428456628E+02
0.212022561826088E+02
0.215169401850452E+02
0.218455557084516E+02
0.221851182623650E+02
0.225325240806173E+02
0.228845777444216E+02
0.195005587198540E+02
0.195213757747426E+02
0.195747782930765E+02
0.196603932315371E+02
0.197775524248955E+02
0.199252978918302E+02
0.201023893922334E+02
0.203073142143101E+02
0.205382991659576E+02
0.207933247391778E+02
0.210701414081444E+02
0.213662880105745E+02
0.216791121479429E+02
0.220057925226200E+02
0.223433631091811E+02
0.226887390330609E+02
0.230387440027223E+02
0.197037637420350E+02
0.197244470619236E+02
0.197774843411438E+02
0.198625057666150E+02
0.199788487340076E+02
0.201255630829598E+02
0.203014185573919E+02
0.205049144710037E+02
0.207342915546126E+02
0.209875459565939E+02
0.212624453598086E+02
0.215565471676250E+02
0.218672186976335E+02
0.221916593042321E+02
0.225269243303871E+02
0.228699507646903E+02
0.232175844526637E+02
0.199330751113759E+02
0.199536078377306E+02
0.200062339053322E+02
0.200905871353399E+02
0.202060111804374E+02
0.203515646807061E+02
0.205260286149288E+02
0.207279158294085E+02
0.209554827233968E+02
0.212067430652034E+02
0.214794839054773E+02
0.217712835435796E+02
0.220795314890848E+02
0.224014503430627E+02
0.227341195028774E+02
0.230745005699332E+02
0.234194643124454E+02
0.201863635490685E+02
0.202067303322232E+02
0.202589033595603E+02
0.203425204529710E+02
0.204569321539009E+02
0.206012067919828E+02
0.207741377164767E+02
0.209742526747888E+02
0.211998253198417E+02
0.214488888234495E+02
0.217192515655967E+02
0.220085148591763E+02
0.223140926559988E+02
0.226332331625385E+02
0.229630422729214E+02
0.233005087022199E+02
0.236425306755694E+02
0.204612692114687E+02
0.204814563582214E+02
0.205331390626941E+02
0.206159594729710E+02
0.207292755805688E+02
0.208721661948591E+02
0.210434380450573E+02
0.212416349964088E+02
0.214650493652277E+02
0.217117353132657E+02
0.219795242949793E+02
0.222660425211726E+02
0.225687303888936E+02
0.228848638101649E+02
0.232115773511131E+02
0.235458890684897E+02
0.238847269028013E+02
0.207552214106281E+02
0.207752170136111E+02
0.208263770099505E+02
0.209083481553222E+02
0.210204963769491E+02
0.211619116478315E+02
0.213314149510523E+02
0.215275673232947E+02
0.217486809652836E+02
0.219928324031554E+02
0.222578776782184E+02
0.225414695327428E+02
0.228410765459734E+02
0.231540041573139E+02
0.234774174925610E+02
0.238083658843490E+02
0.241438089499626E+02
0.210654604468927E+02
0.210852544945810E+02
0.211358645921852E+02
0.212169423377960E+02
0.213278619999494E+02
0.214677252867209E+02
0.216353681655425E+02
0.218293697255006E+02
0.220480630730269E+02
0.222895482486772E+02
0.225517071465379E+02
0.228322204082544E+02
0.231285862503946E+02
0.234381411666700E+02
0.237580824254133E+02
0.240854922578413E+02
0.244173636043908E+02
0.213890614533696E+02
0.214086459198617E+02
0.214586843639215E+02
0.215388334123216E+02
0.216484759970436E+02
0.217867260153700E+02
0.219524349998859E+02
0.221442007928591E+02
0.223603782192189E+02
0.225990917496450E+02
0.228582501395230E+02
0.231355630202632E+02
0.234285594063746E+02
0.237346080645467E+02
0.240509396698171E+02
0.243746706488788E+02
0.247028285820914E+02
0.217229601272968E+02
0.217423290412747E+02
0.217917796962066E+02
0.218709738838195E+02
0.219793034356776E+02
0.221158947715086E+02
0.222796154155777E+02
0.224690824783477E+02
0.226826731010317E+02
0.229185368584476E+02
0.231746101102449E+02
0.234486322816064E+02
0.237381640416001E+02
0.240406073302754E+02
0.243532271643722E+02
0.246731751263259E+02
0.249975144125216E+02
0.220639801958065E+02
0.220831296883445E+02
0.221319821628075E+02
0.222102046612558E+02
0.223171980633822E+02
0.224521015214230E+02
0.226137988206242E+02
0.228009266653017E+02
0.230118848915256E+02
0.232448486057859E+02
0.234977822440717E+02
0.237684555371305E+02
0.240544613549225E+02
0.243532353862692E+02
0.246620775884132E+02
0.249781753158698E+02
0.252986280089662E+02
0.224088624336864E+02
0.224277907648335E+02
0.224760404783259E+02
0.225532839006784E+02
0.226589310199839E+02
0.227921338068780E+02
0.229517924183487E+02
0.231365632872393E+02
0.233448691019013E+02
0.235749106793100E+02
0.238246807304450E+02
0.240919795083733E+02
0.243744323169025E+02
0.246695088407188E+02
0.249745442365908E+02
0.252867618997294E+02
0.256032977901635E+02
0.189158102024600E+02
0.189370136036184E+02
0.189914715825937E+02
0.190788017493036E+02
0.191983198508330E+02
0.193490452819417E+02
0.195297089235409E+02
0.197387632822720E+02
0.199743948993482E+02
0.202345389901289E+02
0.205168962670006E+02
0.208189518866253E+02
0.211379964481911E+02
0.214711489517465E+02
0.218153816049909E+02
0.221675463431327E+02
0.225244028999134E+02
0.189324958028204E+02
0.189536881486142E+02
0.190081159187479E+02
0.190953969909059E+02
0.192148475729950E+02
0.193654877077794E+02
0.195460491032919E+02
0.197549852623016E+02
0.199904838791823E+02
0.202504814658603E+02
0.205326801596457E+02
0.208345666542573E+02
0.211534331809292E+02
0.214864004489414E+02
0.218304424342009E+02
0.221824128807298E+02
0.225390733533923E+02
0.189823995914292E+02
0.190035588834419E+02
0.190578963362782E+02
0.191450306280949E+02
0.192642793444181E+02
0.194146644652258E+02
0.195949201712512E+02
0.198035029432301E+02
0.200386039229798E+02
0.202981634986157E+02
0.205798880673989E+02
0.208812689182649E+02
0.211996031616850E+02
0.215320166169754E+02
0.218754885464433E+02
0.222268781019608E+02
0.225829523229913E+02
0.190650637210707E+02
0.190861682965094E+02
0.191403562475722E+02
0.192272475771464E+02
0.193461621506983E+02
0.194961251543184E+02
0.196758748611390E+02
0.198838726805833E+02
0.201183154602325E+02
0.203771500036493E+02
0.206580897587994E+02
0.209586336203348E+02
0.212760867746608E+02
0.216075834991763E+02
0.219501118063381E+02
0.223005397993557E+02
0.226556435796867E+02
0.191797290788127E+02
0.192007578299003E+02
0.192547386224012E+02
0.193412932942355E+02
0.194597448692122E+02
0.196091229748708E+02
0.197881715536747E+02
0.199953588430327E+02
0.202288895951773E+02
0.204867195016712E+02
0.207665717787631E+02
0.210659558585479E+02
0.213821881165991E+02
0.217124145492349E+02
0.220536352928103E+02
0.224027308535259E+02
0.227564898895064E+02
0.193253412288451E+02
0.193462738157526E+02
0.193999919061089E+02
0.194861196638863E+02
0.196039841165843E+02
0.197526205221442E+02
0.199307800101841E+02
0.201369394743193E+02
0.203693136881691E+02
0.206258696116337E+02
0.209043428456628E+02
0.212022561826088E+02
0.215169401850452E+02
0.218455557084516E+02
0.221851182623650E+02
0.225325240806173E+02
0.228845777444216E+02
0.195005587198540E+02
0.195213757747426E+02
0.195747782930765E+02
0.196603932315371E+02
0.197775524248955E+02
0.199252978918302E+02
0.201023893922334E+02
0.203073142143101E+02
0.205382991659576E+02
0.207933247391778E+02
0.210701414081444E+02
0.213662880105745E+02
0.216791121479429E+02
0.220057925226200E+02
0.223433631091811E+02
0.226887390330609E+02
0.230387440027223E+02
0.197037637420350E+02
0.197244470619236E+02
0.197774843411438E+02
0.198625057666150E+02
0.199788487340076E+02
0.201255630829598E+02
0.203014185573919E+02
0.205049144710037E+02
0.207342915546126E+02
0.209875459565939E+02
0.212624453598086E+02
0.215565471676250E+02
0.218672186976335E+02
0.221916593042321E+02
0.225269243303871E+02
0.228699507646903E+02
0.232175844526637E+02
0.199330751113759E+02
0.199536078377306E+02
0.200062339053322E+02
0.200905871353399E+02
0.202060111804374E+02
0.203515646807061E+02
0.205260286149288E+02
0.207279158294085E+02
0.209554827233968E+02
0.212067430652034E+02
0.214794839054773E+02
0.217712835435796E+02
0.220795314890848E+02
0.224014503430627E+02
0.227341195028774E+02
0.230745005699332E+02
0.234194643124454E+02
0.201863635490685E+02
0.202067303322232E+02
0.202589033595603E+02
0.203425204529710E+02
0.204569321539009E+02
0.206012067919828E+02
0.207741377164767E+02
0.209742526747888E+02
0.211998253198417E+02
0.214488888234495E+02
0.217192515655967E+02
0.220085148591763E+02
0.223140926559988E+02
0.226332331625385E+02
0.229630422729214E+02
0.233005087022199E+02
0.236425306755694E+02
0.204612692114687E+02
0.204814563582214E+02
0.205331390626941E+02
0.206159594729710E+02
0.207292755805688E+02
0.208721661948591E+02
0.210434380450573E+02
0.212416349964088E+02
0.214650493652277E+02
0.217117353132657E+02
0.219795242949793E+02
0.222660425211726E+02
0.225687303888936E+02
0.228848638101649E+02
0.232115773511131E+02
0.235458890684897E+02
0.238847269028013E+02
0.207552214106281E+02
0.207752170136111E+02
0.208263770099505E+02
0.209083481553222E+02
0.210204963769491E+02
0.211619116478315E+02
0.213314149510523E+02
0.215275673232947E+02
0.217486809652836E+02
0.219928324031554E+02
0.222578776782184E+02
0.225414695327428E+02
0.228410765459734E+02
0.231540041573139E+02
0.234774174925610E+02
0.238083658843490E+02
0.241438089499626E+02
0.210654604468927E+02
0.210852544945810E+02
0.211358645921852E+02
0.212169423377960E+02
0.213278619999494E+02
0.214677252867209E+02
0.216353681655425E+02
0.218293697255006E+02
0.220480630730269E+02
0.222895482486772E+02
0.225517071465379E+02
0.228322204082544E+02
0.231285862503946E+02
0.234381411666700E+02
0.237580824254133E+02
0.240854922578413E+02
0.244173636043908E+02
0.213890614533696E+02
0.214086459198617E+02
0.214586843639215E+02
0.215388334123216E+02
0.216484759970436E+02
0.217867260153700E+02
0.219524349998859E+02
0.221442007928591E+02
0.223603782192189E+02
0.225990917496450E+02
0.228582501395230E+02
0.231355630202632E+02
0.234285594063746E+02
0.237346080645467E+02
0.240509396698171E+02
0.243746706488788E+02
0.247028285820914E+02
0.217229601272968E+02
0.217423290412747E+02
0.217917796962066E+02
0.218709738838195E+02
0.219793034356776E+02
0.221158947715086E+02
0.222796154155777E+02
0.224690824783477E+02
0.226826731010317E+02
0.229185368584476E+02
0.231746101102449E+02
0.234486322816064E+02
0.237381640416001E+02
0.240406073302754E+02
0.243532271643722E+02
0.246731751263259E+02
0.249975144125216E+02
0.220639801958065E+02
0.220831296883445E+02
0.221319821628075E+02
0.222102046612558E+02
0.223171980633822E+02
0.224521015214230E+02
0.226137988206242E+02
0.228009266653017E+02
0.230118848915256E+02
0.232448486057859E+02
0.234977822440717E+02
0.237684555371305E+02
0.240544613549225E+02
0.243532353862692E+02
0.246620775884132E+02
0.249781753158698E+02
0.252986280089662E+02
0.224088624336864E+02
0.224277907648335E+02
0.224760404783259E+02
0.225532839006784E+02
0.226589310199839E+02
0.227921338068780E+02
0.229517924183487E+02
0.231365632872393E+02
0.233448691019013E+02
0.235749106793100E+02
0.238246807304450E+02
0.240919795083733E+02
0.243744323169025E+02
0.246695088407188E+02
0.249745442365908E+02
0.252867618997294E+02
0.256032977901635E+02
0.189158102024600E+02
0.189370136036184E+02
0.189914715825937E+02
0.190788017493036E+02
0.191983198508330E+02
0.193490452819417E+02
0.195297089235409E+02
0.197387632822720E+02
0.199743948993482E+02
0.202345389901289E+02
0.205168962670006E+02
0.208189518866253E+02
0.211379964481911E+02
0.214711489517465E+02
0.218153816049909E+02
0.221675463431327E+02
0.225244028999134E+02
0.189324958028204E+02
0.189536881486142E+02
0.190081159187479E+02
0.190953969909059E+02
0.192148475729950E+02
0.193654877077794E+02
0.195460491032919E+02
0.197549852623016E+02
0.199904838791823E+02
0.202504814658603E+02
0.205326801596457E+02
0.208345666542573E+02
0.211534331809292E+02
0.214864004489414E+02
0.218304424342009E+02
0.221824128807298E+02
0.225390733533923E+02
0.189823995914292E+02
0.190035588834419E+02
0.190578963362782E+02
0.191450306280949E+02
0.192642793444181E+02
0.194146644652258E+02
0.195949201712512E+02
0.198035029432301E+02
0.200386039229798E+02
0.202981634986157E+02
0.205798880673989E+02
0.208812689182649E+02
0.211996031616850E+02
0.215320166169754E+02
0.218754885464433E+02
0.222268781019608E+02
0.225829523229913E+02
0.190650637210707E+02
0.190861682965094E+02
0.191403562475722E+02
0.192272475771464E+02
0.193461621506983E+02
0.194961251543184E+02
0.196758748611390E+02
0.198838726805833E+02
0.201183154602325E+02
0.203771500036493E+02
0.206580897587994E+02
0.209586336203348E+02
0.212760867746608E+02
0.216075834991763E+02
0.219501118063381E+02
0.223005397993557E+02
0.226556435796867E+02
0.191797290788127E+02
0.192007578299003E+02
0.192547386224012E+02
0.193412932942355E+02
0.194597448692122E+02
0.196091229748708E+02
0.197881715536747E+02
0.199953588430327E+02
0.202288895951773E+02
0.204867195016712E+02
0.207665717787631E+02
0.210659558585479E+02
0.213821881165991E+02
0.217124145492349E+02
0.220536352928103E+02
0.224027308535259E+02
0.227564898895064E+02
0.193253412288451E+02
0.193462738157526E+02
0.193999919061089E+02
0.194861196638863E+02
0.196039841165843E+02
0.197526205221442E+02
0.199307800101841E+02
0.201369394743193E+02
0.203693136881691E+02
0.206258696116337E+02
0.209043428456628E+02
0.212022561826088E+02
0.215169401850452E+02
0.218455557084516E+02
0.221851182623650E+02
0.225325240806173E+02
0.228845777444216E+02
0.195005587198540E+02
0.195213757747426E+02
0.195747782930765E+02
0.196603932315371E+02
0.197775524248955E+02
0.199252978918302E+02
0.201023893922334E+02
0.203073142143101E+02
0.205382991659576E+02
0.207933247391778E+02
0.210701414081444E+02
0.213662880105745E+02
0.216791121479429E+02
0.220057925226200E+02
0.223433631091811E+02
0.226887390330609E+02
0.230387440027223E+02
0.197037637420350E+02
0.197244470619236E+02
0.197774843411438E+02
0.198625057666150E+02
0.199788487340076E+02
0.201255630829598E+02
0.203014185573919E+02
0.205049144710037E+02
0.207342915546126E+02
0.209875459565939E+02
0.212624453598086E+02
0.215565471676250E+02
0.218672186976335E+02
0.221916593042321E+02
0.225269243303871E+02
0.228699507646903E+02
0.232175844526637E+02
0.199330751113759E+02
0.199536078377306E+02
0.200062339053322E+02
0.200905871353399E+02
0.202060111804374E+02
0.203515646807061E+02
0.205260286149288E+02
0.207279158294085E+02
0.209554827233968E+02
0.212067430652034E+02
0.214794839054773E+02
0.217712835435796E+02
0.220795314890848E+02
0.224014503430627E+02
0.227341195028774E+02
0.230745005699332E+02
0.234194643124454E+02
0.201863635490685E+02
0.202067303322232E+02
0.202589033595603E+02
0.203425204529710E+02
0.204569321539009E+02
0.206012067919828E+02
0.207741377164767E+02
0.209742526747888E+02
0.211998253198417E+02
0.214488888234495E+02
0.217192515655967E+02
0.220085148591763E+02
0.223140926559988E+02
0.226332331625385E+02
0.229630422729214E+02
0.233005087022199E+02
0.236425306755694E+02
0.204612692114687E+02
0.204814563582214E+02
0.205331390626941E+02
0.206159594729710E+02
0.207292755805688E+02
0.208721661948591E+02
0.210434380450573E+02
0.212416349964088E+02
0.214650493652277E+02
0.217117353132657E+02
0.219795242949793E+02
0.222660425211726E+02
0.225687303888936E+02
0.228848638101649E+02
0.232115773511131E+02
0.235458890684897E+02
0.238847269028013E+02
0.207552214106281E+02
0.207752170136111E+02
0.208263770099505E+02
0.209083481553222E+02
0.210204963769491E+02
0.211619116478315E+02
0.213314149510523E+02
0.215275673232947E+02
0.217486809652836E+02
0.219928324031554E+02
0.222578776782184E+02
0.225414695327428E+02
0.228410765459734E+02
0.231540041573139E+02
0.234774174925610E+02
0.238083658843490E+02
0.241438089499626E+02
0.210654604468927E+02
0.210852544945810E+02
0.211358645921852E+02
0.212169423377960E+02
0.213278619999494E+02
0.214677252867209E+02
0.216353681655425E+02
0.218293697255006E+02
0.220480630730269E+02
0.222895482486772E+02
0.225517071465379E+02
0.228322204082544E+02
0.231285862503946E+02
0.234381411666700E+02
0.237580824254133E+02
0.240854922578413E+02
0.244173636043908E+02
0.213890614533696E+02
0.214086459198617E+02
0.214586843639215E+02
0.215388334123216E+02
0.216484759970436E+02
0.217867260153700E+02
0.219524349998859E+02
0.221442007928591E+02
0.223603782192189E+02
0.225990917496450E+02
0.228582501395230E+02
0.231355630202632E+02
0.234285594063746E+02
0.237346080645467E+02
0.240509396698171E+02
0.243746706488788E+02
0.247028285820914E+02
0.217229601272968E+02
0.217423290412747E+02
0.217917796962066E+02
0.218709738838195E+02
0.219793034356776E+02
0.221158947715086E+02
0.222796154155777E+02
0.224690824783477E+02
0.226826731010317E+02
0.229185368584476E+02
0.231746101102449E+02
0.234486322816064E+02
0.237381640416001E+02
0.240406073302754E+02
0.243532271643722E+02
0.246731751263259E+02
0.249975144125216E+02
0.220639801958065E+02
0.220831296883445E+02
0.221319821628075E+02
0.222102046612558E+02
0.223171980633822E+02
0.224521015214230E+02
0.226137988206242E+02
0.228009266653017E+02
0.230118848915256E+02
0.232448486057859E+02
0.234977822440717E+02
0.237684555371305E+02
0.240544613549225E+02
0.243532353862692E+02
0.246620775884132E+02
0.249781753158698E+02
0.252986280089662E+02
0.224088624336864E+02
0.224277907648335E+02
0.224760404783259E+02
0.225532839006784E+02
0.226589310199839E+02
0.227921338068780E+02
0.229517924183487E+02
0.231365632872393E+02
0.233448691019013E+02
0.235749106793100E+02
0.238246807304450E+02
0.240919795083733E+02
0.243744323169025E+02
0.246695088407188E+02
0.249745442365908E+02
0.252867618997294E+02
0.256032977901635E+02
0.189158102024600E+02
0.189370136036184E+02
0.189914715825937E+02
0.190788017493036E+02
0.191983198508330E+02
0.193490452819417E+02
0.195297089235409E+02
0.197387632822720E+02
0.199743948993482E+02
0.202345389901289E+02
0.205168962670006E+02
0.208189518866253E+02
0.211379964481911E+02
0.214711489517465E+02
0.218153816049909E+02
0.221675463431327E+02
0.225244028999134E+02
0.189324958028204E+02
0.189536881486142E+02
0.190081159187479E+02
0.190953969909059E+02
0.192148475729950E+02
0.193654877077794E+02
0.195460491032919E+02
0.197549852623016E+02
0.199904838791823E+02
0.202504814658603E+02
0.205326801596457E+02
0.208345666542573E+02
0.211534331809292E+02
0.214864004489414E+02
0.218304424342009E+02
0.221824128807298E+02
0.225390733533923E+02
0.189823995914292E+02
0.190035588834419E+02
0.190578963362782E+02
0.191450306280949E+02
0.192642793444181E+02
0.194146644652258E+02
0.195949201712512E+02
0.198035029432301E+02
0.200386039229798E+02
0.202981634986157E+02
0.205798880673989E+02
0.208812689182649E+02
0.211996031616850E+02
0.215320166169754E+02
0.218754885464433E+02
0.222268781019608E+02
0.225829523229913E+02
0.190650637210707E+02
0.190861682965094E+02
0.191403562475722E+02
0.192272475771464E+02
0.193461621506983E+02
0.194961251543184E+02
0.196758748611390E+02
0.198838726805833E+02
0.201183154602325E+02
0.203771500036493E+02
0.206580897587994E+02
0.209586336203348E+02
0.212760867746608E+02
0.216075834991763E+02
0.219501118063381E+02
0.223005397993557E+02
0.226556435796867E+02
0.191797290788127E+02
0.192007578299003E+02
0.192547386224012E+02
0.193412932942355E+02
0.194597448692122E+02
0.196091229748708E+02
0.197881715536747E+02
0.199953588430327E+02
0.202288895951773E+02
0.204867195016712E+02
0.207665717787631E+02
0.210659558585479E+02
0.213821881165991E+02
0.217124145492349E+02
0.220536352928103E+02
0.224027308535259E+02
0.227564898895064E+02
0.193253412288451E+02
0.193462738157526E+02
0.193999919061089E+02
0.194861196638863E+02
0.196039841165843E+02
0.197526205221442E+02
0.199307800101841E+02
0.201369394743193E+02
0.203693136881691E+02
0.206258696116337E+02
0.209043428456628E+02
0.212022561826088E+02
0.215169401850452E+02
0.218455557084516E+02
0.221851182623650E+02
0.225325240806173E+02
0.228845777444216E+02
0.195005587198540E+02
0.195213757747426E+02
0.195747782930765E+02
0.196603932315371E+02
0.197775524248955E+02
0.199252978918302E+02
0.201023893922334E+02
0.203073142143101E+02
0.205382991659576E+02
0.207933247391778E+02
0.210701414081444E+02
0.213662880105745E+02
0.216791121479429E+02
0.220057925226200E+02
0.223433631091811E+02
0.226887390330609E+02
0.230387440027223E+02
0.197037637420350E+02
0.197244470619236E+02
0.197774843411438E+02
0.198625057666150E+02
0.199788487340076E+02
0.201255630829598E+02
0.203014185573919E+02
0.205049144710037E+02
0.207342915546126E+02
0.209875459565939E+02
0.212624453598086E+02
0.215565471676250E+02
0.218672186976335E+02
0.221916593042321E+02
0.225269243303871E+02
0.228699507646903E+02
0.232175844526637E+02
0.199330751113759E+02
0.199536078377306E+02
0.200062339053322E+02
0.200905871353399E+02
0.202060111804374E+02
0.203515646807061E+02
0.205260286149288E+02
0.207279158294085E+02
0.209554827233968E+02
0.212067430652034E+02
0.214794839054773E+02
0.217712835435796E+02
0.220795314890848E+02
0.224014503430627E+02
0.227341195028774E+02
0.230745005699332E+02
0.234194643124454E+02
0.201863635490685E+02
0.202067303322232E+02
0.202589033595603E+02
0.203425204529710E+02
0.204569321539009E+02
0.206012067919828E+02
0.207741377164767E+02
0.209742526747888E+02
0.211998253198417E+02
0.214488888234495E+02
0.217192515655967E+02
0.220085148591763E+02
0.223140926559988E+02
0.226332331625385E+02
0.229630422729214E+02
0.233005087022199E+02
0.236425306755694E+02
0.204612692114687E+02
0.204814563582214E+02
0.205331390626941E+02
0.206159594729710E+02
0.207292755805688E+02
0.208721661948591E+02
0.210434380450573E+02
0.212416349964088E+02
0.214650493652277E+02
0.217117353132657E+02
0.219795242949793E+02
0.222660425211726E+02
0.225687303888936E+02
0.228848638101649E+02
0.232115773511131E+02
0.235458890684897E+02
0.238847269028013E+02
0.207552214106281E+02
0.207752170136111E+02
0.208263770099505E+02
0.209083481553222E+02
0.210204963769491E+02
0.211619116478315E+02
0.213314149510523E+02
0.215275673232947E+02
0.217486809652836E+02
0.219928324031554E+02
0.222578776782184E+02
0.225414695327428E+02
0.228410765459734E+02
0.231540041573139E+02
0.234774174925610E+02
0.238083658843490E+02
0.241438089499626E+02
0.210654604468927E+02
0.210852544945810E+02
0.211358645921852E+02
0.212169423377960E+02
0.213278619999494E+02
0.214677252867209E+02
0.216353681655425E+02
0.218293697255006E+02
0.220480630730269E+02
0.222895482486772E+02
0.225517071465379E+02
0.228322204082544E+02
0.231285862503946E+02
0.234381411666700E+02
0.237580824254133E+02
0.240854922578413E+02
0.244173636043908E+02
0.213890614533696E+02
0.214086459198617E+02
0.214586843639215E+02
0.215388334123216E+02
0.216484759970436E+02
0.217867260153700E+02
0.219524349998859E+02
0.221442007928591E+02
0.223603782192189E+02
0.225990917496450E+02
0.228582501395230E+02
0.231355630202632E+02
0.234285594063746E+02
0.237346080645467E+02
0.240509396698171E+02
0.243746706488788E+02
0.247028285820914E+02
0.217229601272968E+02
0.217423290412747E+02
0.217917796962066E+02
0.218709738838195E+02
0.219793034356776E+02
0.221158947715086E+02
0.222796154155777E+02
0.224690824783477E+02
0.226826731010317E+02
0.229185368584476E+02
0.231746101102449E+02
0.234486322816064E+02
0.237381640416001E+02
0.240406073302754E+02
0.243532271643722E+02
0.246731751263259E+02
0.249975144125216E+02
0.220639801958065E+02
0.220831296883445E+02
0.221319821628075E+02
0.222102046612558E+02
0.223171980633822E+02
0.224521015214230E+02
0.226137988206242E+02
0.228009266653017E+02
0.230118848915256E+02
0.232448486057859E+02
0.234977822440717E+02
0.237684555371305E+02
0.240544613549225E+02
0.243532353862692E+02
0.246620775884132E+02
0.249781753158698E+02
0.252986280089662E+02
0.224088624336864E+02
0.224277907648335E+02
0.224760404783259E+02
0.225532839006784E+02
0.226589310199839E+02
0.227921338068780E+02
0.229517924183487E+02
0.231365632872393E+02
0.233448691019013E+02
0.235749106793100E+02
0.238246807304450E+02
0.240919795083733E+02
0.243744323169025E+02
0.246695088407188E+02
0.249745442365908E+02
0.252867618997294E+02
0.256032977901635E+02
</DataArray>
</PointData>
</Piece>
</RectilinearGrid>
</VTKFile>
