<?xml version="1.0"?>
<VTKFile type="RectilinearGrid" version="0.1" byte_order="LittleEndian">
<RectilinearGrid WholeExtent="0   63    0   63    0    3">
<Piece Extent="0   15   47   63    0    3">
<Coordinates>
<DataArray Name="x" type="Float32" format="ascii">
0.000000000000000E+00
0.100000000000000E+00
0.200000000000000E+00
0.300000000000000E+00
0.400000000000000E+00
0.500000000000000E+00
0.600000000000000E+00
0.700000000000000E+00
0.800000000000000E+00
0.900000000000000E+00
0.100000000000000E+01
0.110000000000000E+01
0.120000000000000E+01
0.130000000000000E+01
0.140000000000000E+01
0.150000000000000E+01
</DataArray>
<DataArray Name="y" type="Float32" format="ascii">
0.470000000000000E+01
0.480000000000000E+01
0.490000000000000E+01
0.500000000000000E+01
0.510000000000000E+01
0.520000000000000E+01
0.530000000000000E+01
0.540000000000000E+01
0.550000000000000E+01
0.560000000000000E+01
0.570000000000000E+01
0.580000000000000E+01
0.590000000000000E+01
0.600000000000000E+01
0.610000000000000E+01
0.620000000000000E+01
0.630000000000000E+01
</DataArray>
<DataArray Name="z" type="Float32" format="ascii">
0.000000000000000E+00
0.100000000000000E+00
0.200000000000000E+00
0.300000000000000E+00
</DataArray>
</Coordinates>
<PointData Scalars="c">
<DataArray type="Float32" Name="c" format="ascii">
0.332150132791943E+02
0.330797286861533E+02
0.328151060811713E+02
0.324323347980265E+02
0.319465794982100E+02
0.313753909028991E+02
0.307370741474304E+02
0.300492644539447E+02
0.293278794348180E+02
0.285865153916736E+02
0.278362612127847E+02
0.270858387819065E+02
0.263419508363806E+02
0.256097215709750E+02
0.248931404446161E+02
0.241954526110293E+02
0.337168237093961E+02
0.335838499653663E+02
0.333237811804338E+02
0.329476792980464E+02
0.324705371043876E+02
0.319097077120521E+02
0.312832919944319E+02
0.306087306307361E+02
0.299017680123220E+02
0.291758545471421E+02
0.284419612699699E+02
0.277087167553319E+02
0.269827486892752E+02
0.262691167605125E+02
0.255717483929611E+02
0.248938214231197E+02
0.342399495433747E+02
0.341093027816625E+02
0.338538176578962E+02
0.334844240668300E+02
0.330159363757078E+02
0.324655020974826E+02
0.318510088589701E+02
0.311896932230315E+02
0.304971165118554E+02
0.297865733283359E+02
0.290689070044762E+02
0.283526430948888E+02
0.276443247381229E+02
0.269489379607989E+02
0.262703395571769E+02
0.256116323669988E+02
0.347824253890135E+02
0.346541087549903E+02
0.344032115921423E+02
0.340405279136641E+02
0.335806882632721E+02
0.330406279209349E+02
0.324380137652890E+02
0.317898702026653E+02
0.311115671754559E+02
0.304162350987765E+02
0.297145812886712E+02
0.290150201497885E+02
0.283240024487458E+02
0.276464332005342E+02
0.269860919447634E+02
0.263460009795291E+02
0.353416856261793E+02
0.352156888066191E+02
0.349693574862382E+02
0.346133469118703E+02
0.341620997071307E+02
0.336323338436855E+02
0.330414896488050E+02
0.324063730802045E+02
0.317421561279466E+02
0.310617983399758E+02
0.303758643781188E+02
0.296926510417033E+02
0.290185106131051E+02
0.283582615300274E+02
0.277156013271229E+02
0.270934681749502E+02
0.359142754757855E+02
0.357905734703535E+02
0.355487570869258E+02
0.351993410358954E+02
0.347565774597752E+02
0.342369637706315E+02
0.336577099201559E+02
0.330353991463703E+02
0.323850008993045E+02
0.317192990901258E+02
0.310487109192425E+02
0.303814108986807E+02
0.297236484622702E+02
0.290801516572686E+02
0.284545330354541E+02
0.278496448376958E+02
0.364954996260912E+02
0.363740505887409E+02
0.361366652509800E+02
0.357937173548163E+02
0.353592678399658E+02
0.348495924844039E+02
0.342816693879689E+02
0.336718571740767E+02
0.330349204671492E+02
0.323834649443030E+02
0.317277575660210E+02
0.310758477762856E+02
0.304338796007922E+02
0.298064886219462E+02
0.291972011210107E+02
0.286087832440609E+02
0.370790419046900E+02
0.369597839716951E+02
0.367267066106471E+02
0.363900437877518E+02
0.359636667462482E+02
0.354636311828017E+02
0.349066846868990E+02
0.343089621996254E+02
0.336850239386929E+02
0.330472972560638E+02
0.324058983775612E+02
0.317687509733439E+02
0.311418930011007E+02
0.305298672646936E+02
0.299361141338807E+02
0.293633150315785E+02
0.376566185017392E+02
0.375394656832317E+02
0.373105260178459E+02
0.369798968567555E+02
0.365612639473122E+02
0.360704676250097E+02
0.355240296914090E+02
0.349378657055311E+02
0.343263350852304E+02
0.337016896761660E+02
0.330738970723404E+02
0.324507567625493E+02
0.318382020152140E+02
0.312406843672006E+02
0.306615602844864E+02
0.301034293277730E+02
0.382177548565744E+02
0.381025922957563E+02
0.378775635521796E+02
0.375526348692141E+02
0.371413139064238E+02
0.366592341202408E+02
0.361227002479361E+02
0.355474167310484E+02
0.349475495168574E+02
0.343351811224587E+02
0.337201355638055E+02
0.331100922978647E+02
0.325108834941147E+02
0.319268728593301E+02
0.313613366543345E+02
0.308167969276845E+02
0.387497919282465E+02
0.386364710968094E+02
0.384150605960060E+02
0.380954037856768E+02
0.376908413560686E+02
0.372168127113050E+02
0.366894188571985E+02
0.361241659315232E+02
0.355350379875007E+02
0.349339581923197E+02
0.343306153387195E+02
0.337325758186648E+02
0.331455766845764E+02
0.325738992891528E+02
0.320207451410023E+02
0.314885646450200E+02
0.392382195462547E+02
0.391265541875106E+02
0.389083953922930E+02
0.385934748809622E+02
0.381949816139498E+02
0.377281785900513E+02
0.372089815214386E+02
0.366527160811662E+02
0.360732006784990E+02
0.354822132682343E+02
0.348893193581231E+02
0.343019822681138E+02
0.337258524511363E+02
0.331651365128588E+02
0.326229684708472E+02
0.321017345037201E+02
0.396673947961102E+02
0.395571585709791E+02
0.393418064653746E+02
0.390309729883705E+02
0.386377149535959E+02
0.381771416783836E+02
0.376650073899099E+02
0.371164804135252E+02
0.365452346605631E+02
0.359629213512890E+02
0.353789983666939E+02
0.348008390671288E+02
0.342340184148517E+02
0.336826780327029E+02
0.331498935229980E+02
0.326379958013641E+02
0.400216325274200E+02
0.399125592867122E+02
0.396994908986974E+02
0.393919822318522E+02
0.390029818216109E+02
0.385474730347173E+02
0.380410777151868E+02
0.374988351536660E+02
0.369343007214497E+02
0.363590216375261E+02
0.357823674489585E+02
0.352116377027311E+02
0.346523454852319E+02
0.341085792743102E+02
0.335833670682076E+02
0.330789949576366E+02
0.402865655618479E+02
0.401783529161799E+02
0.399669743008217E+02
0.396619253607372E+02
0.392760741029768E+02
0.388243102079301E+02
0.383221570287013E+02
0.377845578334708E+02
0.372249797586647E+02
0.366548925937969E+02
0.360836001161647E+02
0.355183469281786E+02
0.349646000960413E+02
0.344264086378288E+02
0.339067653003734E+02
0.334079230964809E+02
0.404505872788803E+02
0.403429036771482E+02
0.401325637747040E+02
0.398290266921070E+02
0.394451107692295E+02
0.389956478980010E+02
0.384961006715934E+02
0.379613531120799E+02
0.374048179061574E+02
0.368379170554559E+02
0.362699137442582E+02
0.357080186695674E+02
0.351576705155740E+02
0.346228939920156E+02
0.341066601684394E+02
0.336112017638511E+02
0.405061366242622E+02
0.403986315625286E+02
0.401886421912355E+02
0.398856152852203E+02
0.395023523956050E+02
0.390536658793910E+02
0.385549977890317E+02
0.380212121161694E+02
0.374657031372675E+02
0.368998766952052E+02
0.363329822482016E+02
0.357722190296616E+02
0.352230161304651E+02
0.346893900486609E+02
0.341743045374119E+02
0.336799854741575E+02
0.332150132791943E+02
0.330797286861533E+02
0.328151060811713E+02
0.324323347980264E+02
0.319465794982099E+02
0.313753909028991E+02
0.307370741474304E+02
0.300492644539447E+02
0.293278794348180E+02
0.285865153916735E+02
0.278362612127846E+02
0.270858387819065E+02
0.263419508363806E+02
0.256097215709749E+02
0.248931404446160E+02
0.241954526110292E+02
0.337168237093960E+02
0.335838499653662E+02
0.333237811804338E+02
0.329476792980464E+02
0.324705371043875E+02
0.319097077120521E+02
0.312832919944319E+02
0.306087306307361E+02
0.299017680123219E+02
0.291758545471421E+02
0.284419612699699E+02
0.277087167553318E+02
0.269827486892752E+02
0.262691167605124E+02
0.255717483929610E+02
0.248938214231196E+02
0.342399495433746E+02
0.341093027816624E+02
0.338538176578961E+02
0.334844240668300E+02
0.330159363757077E+02
0.324655020974826E+02
0.318510088589701E+02
0.311896932230315E+02
0.304971165118554E+02
0.297865733283359E+02
0.290689070044761E+02
0.283526430948887E+02
0.276443247381229E+02
0.269489379607989E+02
0.262703395571768E+02
0.256116323669988E+02
0.347824253890135E+02
0.346541087549903E+02
0.344032115921423E+02
0.340405279136641E+02
0.335806882632720E+02
0.330406279209349E+02
0.324380137652890E+02
0.317898702026652E+02
0.311115671754558E+02
0.304162350987765E+02
0.297145812886711E+02
0.290150201497884E+02
0.283240024487458E+02
0.276464332005342E+02
0.269860919447634E+02
0.263460009795290E+02
0.353416856261792E+02
0.352156888066191E+02
0.349693574862381E+02
0.346133469118703E+02
0.341620997071307E+02
0.336323338436855E+02
0.330414896488050E+02
0.324063730802044E+02
0.317421561279466E+02
0.310617983399757E+02
0.303758643781188E+02
0.296926510417033E+02
0.290185106131050E+02
0.283582615300274E+02
0.277156013271229E+02
0.270934681749501E+02
0.359142754757855E+02
0.357905734703535E+02
0.355487570869258E+02
0.351993410358953E+02
0.347565774597752E+02
0.342369637706315E+02
0.336577099201559E+02
0.330353991463702E+02
0.323850008993045E+02
0.317192990901258E+02
0.310487109192424E+02
0.303814108986807E+02
0.297236484622702E+02
0.290801516572686E+02
0.284545330354541E+02
0.278496448376957E+02
0.364954996260912E+02
0.363740505887409E+02
0.361366652509800E+02
0.357937173548162E+02
0.353592678399658E+02
0.348495924844038E+02
0.342816693879689E+02
0.336718571740767E+02
0.330349204671491E+02
0.323834649443029E+02
0.317277575660210E+02
0.310758477762855E+02
0.304338796007921E+02
0.298064886219462E+02
0.291972011210107E+02
0.286087832440609E+02
0.370790419046899E+02
0.369597839716951E+02
0.367267066106471E+02
0.363900437877518E+02
0.359636667462482E+02
0.354636311828017E+02
0.349066846868990E+02
0.343089621996253E+02
0.336850239386928E+02
0.330472972560637E+02
0.324058983775611E+02
0.317687509733438E+02
0.311418930011006E+02
0.305298672646936E+02
0.299361141338806E+02
0.293633150315784E+02
0.376566185017391E+02
0.375394656832316E+02
0.373105260178459E+02
0.369798968567555E+02
0.365612639473122E+02
0.360704676250097E+02
0.355240296914090E+02
0.349378657055311E+02
0.343263350852304E+02
0.337016896761660E+02
0.330738970723404E+02
0.324507567625493E+02
0.318382020152139E+02
0.312406843672006E+02
0.306615602844864E+02
0.301034293277730E+02
0.382177548565744E+02
0.381025922957563E+02
0.378775635521796E+02
0.375526348692141E+02
0.371413139064238E+02
0.366592341202408E+02
0.361227002479361E+02
0.355474167310484E+02
0.349475495168574E+02
0.343351811224587E+02
0.337201355638055E+02
0.331100922978646E+02
0.325108834941147E+02
0.319268728593301E+02
0.313613366543345E+02
0.308167969276844E+02
0.387497919282465E+02
0.386364710968093E+02
0.384150605960059E+02
0.380954037856767E+02
0.376908413560685E+02
0.372168127113049E+02
0.366894188571984E+02
0.361241659315232E+02
0.355350379875007E+02
0.349339581923197E+02
0.343306153387195E+02
0.337325758186648E+02
0.331455766845764E+02
0.325738992891528E+02
0.320207451410022E+02
0.314885646450200E+02
0.392382195462547E+02
0.391265541875106E+02
0.389083953922930E+02
0.385934748809622E+02
0.381949816139498E+02
0.377281785900512E+02
0.372089815214385E+02
0.366527160811662E+02
0.360732006784990E+02
0.354822132682343E+02
0.348893193581231E+02
0.343019822681138E+02
0.337258524511363E+02
0.331651365128588E+02
0.326229684708472E+02
0.321017345037200E+02
0.396673947961102E+02
0.395571585709790E+02
0.393418064653746E+02
0.390309729883705E+02
0.386377149535958E+02
0.381771416783835E+02
0.376650073899098E+02
0.371164804135252E+02
0.365452346605631E+02
0.359629213512890E+02
0.353789983666939E+02
0.348008390671288E+02
0.342340184148516E+02
0.336826780327029E+02
0.331498935229980E+02
0.326379958013641E+02
0.400216325274200E+02
0.399125592867122E+02
0.396994908986974E+02
0.393919822318521E+02
0.390029818216109E+02
0.385474730347172E+02
0.380410777151868E+02
0.374988351536660E+02
0.369343007214497E+02
0.363590216375261E+02
0.357823674489584E+02
0.352116377027310E+02
0.346523454852319E+02
0.341085792743101E+02
0.335833670682076E+02
0.330789949576366E+02
0.402865655618479E+02
0.401783529161799E+02
0.399669743008217E+02
0.396619253607371E+02
0.392760741029768E+02
0.388243102079300E+02
0.383221570287012E+02
0.377845578334707E+02
0.372249797586646E+02
0.366548925937969E+02
0.360836001161647E+02
0.355183469281786E+02
0.349646000960412E+02
0.344264086378287E+02
0.339067653003734E+02
0.334079230964809E+02
0.404505872788803E+02
0.403429036771481E+02
0.401325637747040E+02
0.398290266921069E+02
0.394451107692294E+02
0.389956478980010E+02
0.384961006715934E+02
0.379613531120798E+02
0.374048179061574E+02
0.368379170554559E+02
0.362699137442582E+02
0.357080186695674E+02
0.351576705155740E+02
0.346228939920156E+02
0.341066601684394E+02
0.336112017638511E+02
0.405061366242621E+02
0.403986315625286E+02
0.401886421912355E+02
0.398856152852202E+02
0.395023523956049E+02
0.390536658793910E+02
0.385549977890317E+02
0.380212121161693E+02
0.374657031372674E+02
0.368998766952051E+02
0.363329822482016E+02
0.357722190296616E+02
0.352230161304651E+02
0.346893900486609E+02
0.341743045374119E+02
0.336799854741575E+02
0.332150132791943E+02
0.330797286861533E+02
0.328151060811713E+02
0.324323347980265E+02
0.319465794982100E+02
0.313753909028991E+02
0.307370741474304E+02
0.300492644539447E+02
0.293278794348180E+02
0.285865153916736E+02
0.278362612127847E+02
0.270858387819065E+02
0.263419508363806E+02
0.256097215709750E+02
0.248931404446161E+02
0.241954526110293E+02
0.337168237093961E+02
0.335838499653663E+02
0.333237811804338E+02
0.329476792980464E+02
0.324705371043876E+02
0.319097077120521E+02
0.312832919944319E+02
0.306087306307361E+02
0.299017680123220E+02
0.291758545471421E+02
0.284419612699699E+02
0.277087167553319E+02
0.269827486892752E+02
0.262691167605125E+02
0.255717483929611E+02
0.248938214231197E+02
0.342399495433747E+02
0.341093027816625E+02
0.338538176578962E+02
0.334844240668300E+02
0.330159363757078E+02
0.324655020974826E+02
0.318510088589701E+02
0.311896932230315E+02
0.304971165118554E+02
0.297865733283359E+02
0.290689070044762E+02
0.283526430948888E+02
0.276443247381229E+02
0.269489379607989E+02
0.262703395571769E+02
0.256116323669988E+02
0.347824253890135E+02
0.346541087549903E+02
0.344032115921423E+02
0.340405279136641E+02
0.335806882632721E+02
0.330406279209349E+02
0.324380137652890E+02
0.317898702026653E+02
0.311115671754559E+02
0.304162350987765E+02
0.297145812886712E+02
0.290150201497885E+02
0.283240024487458E+02
0.276464332005342E+02
0.269860919447634E+02
0.263460009795291E+02
0.353416856261793E+02
0.352156888066191E+02
0.349693574862382E+02
0.346133469118703E+02
0.341620997071307E+02
0.336323338436855E+02
0.330414896488050E+02
0.324063730802045E+02
0.317421561279466E+02
0.310617983399758E+02
0.303758643781188E+02
0.296926510417033E+02
0.290185106131051E+02
0.283582615300274E+02
0.277156013271229E+02
0.270934681749502E+02
0.359142754757855E+02
0.357905734703535E+02
0.355487570869258E+02
0.351993410358954E+02
0.347565774597752E+02
0.342369637706315E+02
0.336577099201559E+02
0.330353991463703E+02
0.323850008993045E+02
0.317192990901258E+02
0.310487109192425E+02
0.303814108986807E+02
0.297236484622702E+02
0.290801516572686E+02
0.284545330354541E+02
0.278496448376958E+02
0.364954996260912E+02
0.363740505887409E+02
0.361366652509800E+02
0.357937173548163E+02
0.353592678399658E+02
0.348495924844039E+02
0.342816693879689E+02
0.336718571740767E+02
0.330349204671492E+02
0.323834649443030E+02
0.317277575660210E+02
0.310758477762856E+02
0.304338796007922E+02
0.298064886219462E+02
0.291972011210107E+02
0.286087832440609E+02
0.370790419046900E+02
0.369597839716951E+02
0.367267066106471E+02
0.363900437877518E+02
0.359636667462482E+02
0.354636311828017E+02
0.349066846868990E+02
0.343089621996254E+02
0.336850239386929E+02
0.330472972560638E+02
0.324058983775612E+02
0.317687509733439E+02
0.311418930011007E+02
0.305298672646936E+02
0.299361141338807E+02
0.293633150315785E+02
0.376566185017392E+02
0.375394656832317E+02
0.373105260178459E+02
0.369798968567555E+02
0.365612639473122E+02
0.360704676250097E+02
0.355240296914090E+02
0.349378657055311E+02
0.343263350852304E+02
0.337016896761660E+02
0.330738970723404E+02
0.324507567625493E+02
0.318382020152140E+02
0.312406843672006E+02
0.306615602844864E+02
0.301034293277730E+02
0.382177548565744E+02
0.381025922957563E+02
0.378775635521796E+02
0.375526348692141E+02
0.371413139064238E+02
0.366592341202408E+02
0.361227002479361E+02
0.355474167310484E+02
0.349475495168574E+02
0.343351811224587E+02
0.337201355638055E+02
0.331100922978647E+02
0.325108834941147E+02
0.319268728593301E+02
0.313613366543345E+02
0.308167969276845E+02
0.387497919282465E+02
0.386364710968094E+02
0.384150605960060E+02
0.380954037856768E+02
0.376908413560686E+02
0.372168127113050E+02
0.366894188571985E+02
0.361241659315232E+02
0.355350379875007E+02
0.349339581923197E+02
0.343306153387195E+02
0.337325758186648E+02
0.331455766845764E+02
0.325738992891528E+02
0.320207451410023E+02
0.314885646450200E+02
0.392382195462547E+02
0.391265541875106E+02
0.389083953922930E+02
0.385934748809622E+02
0.381949816139498E+02
0.377281785900513E+02
0.372089815214386E+02
0.366527160811662E+02
0.360732006784990E+02
0.354822132682343E+02
0.348893193581231E+02
0.343019822681138E+02
0.337258524511363E+02
0.331651365128588E+02
0.326229684708472E+02
0.321017345037201E+02
0.396673947961102E+02
0.395571585709791E+02
0.393418064653746E+02
0.390309729883705E+02
0.386377149535959E+02
0.381771416783836E+02
0.376650073899099E+02
0.371164804135252E+02
0.365452346605631E+02
0.359629213512890E+02
0.353789983666939E+02
0.348008390671288E+02
0.342340184148517E+02
0.336826780327029E+02
0.331498935229980E+02
0.326379958013641E+02
0.400216325274200E+02
0.399125592867122E+02
0.396994908986974E+02
0.393919822318522E+02
0.390029818216109E+02
0.385474730347173E+02
0.380410777151868E+02
0.374988351536660E+02
0.369343007214497E+02
0.363590216375261E+02
0.357823674489585E+02
0.352116377027311E+02
0.346523454852319E+02
0.341085792743102E+02
0.335833670682076E+02
0.330789949576366E+02
0.402865655618479E+02
0.401783529161799E+02
0.399669743008217E+02
0.396619253607372E+02
0.392760741029768E+02
0.388243102079301E+02
0.383221570287013E+02
0.377845578334708E+02
0.372249797586647E+02
0.366548925937969E+02
0.360836001161647E+02
0.355183469281786E+02
0.349646000960413E+02
0.344264086378288E+02
0.339067653003734E+02
0.334079230964809E+02
0.404505872788803E+02
0.403429036771482E+02
0.401325637747040E+02
0.398290266921070E+02
0.394451107692295E+02
0.389956478980010E+02
0.384961006715934E+02
0.379613531120799E+02
0.374048179061574E+02
0.368379170554559E+02
0.362699137442582E+02
0.357080186695674E+02
0.351576705155740E+02
0.346228939920156E+02
0.341066601684394E+02
0.336112017638511E+02
0.405061366242622E+02
0.403986315625286E+02
0.401886421912355E+02
0.398856152852203E+02
0.395023523956050E+02
0.390536658793910E+02
0.385549977890317E+02
0.380212121161694E+02
0.374657031372675E+02
0.368998766952052E+02
0.363329822482016E+02
0.357722190296616E+02
0.352230161304651E+02
0.346893900486609E+02
0.341743045374119E+02
0.336799854741575E+02
0.332150132791944E+02
0.330797286861534E+02
0.328151060811713E+02
0.324323347980265E+02
0.319465794982100E+02
0.313753909028992E+02
0.307370741474305E+02
0.300492644539448E+02
0.293278794348180E+02
0.285865153916736E+02
0.278362612127847E+02
0.270858387819066E+02
0.263419508363807E+02
0.256097215709750E+02
0.248931404446161E+02
0.241954526110293E+02
0.337168237093961E+02
0.335838499653663E+02
0.333237811804339E+02
0.329476792980464E+02
0.324705371043876E+02
0.319097077120522E+02
0.312832919944320E+02
0.306087306307362E+02
0.299017680123220E+02
0.291758545471421E+02
0.284419612699699E+02
0.277087167553319E+02
0.269827486892753E+02
0.262691167605125E+02
0.255717483929611E+02
0.248938214231197E+02
0.342399495433747E+02
0.341093027816625E+02
0.338538176578962E+02
0.334844240668301E+02
0.330159363757078E+02
0.324655020974827E+02
0.318510088589702E+02
0.311896932230315E+02
0.304971165118555E+02
0.297865733283360E+02
0.290689070044762E+02
0.283526430948888E+02
0.276443247381230E+02
0.269489379607990E+02
0.262703395571769E+02
0.256116323669989E+02
0.347824253890136E+02
0.346541087549903E+02
0.344032115921423E+02
0.340405279136642E+02
0.335806882632721E+02
0.330406279209349E+02
0.324380137652891E+02
0.317898702026653E+02
0.311115671754559E+02
0.304162350987765E+02
0.297145812886712E+02
0.290150201497885E+02
0.283240024487459E+02
0.276464332005343E+02
0.269860919447635E+02
0.263460009795291E+02
0.353416856261793E+02
0.352156888066192E+02
0.349693574862382E+02
0.346133469118704E+02
0.341620997071308E+02
0.336323338436856E+02
0.330414896488051E+02
0.324063730802045E+02
0.317421561279467E+02
0.310617983399758E+02
0.303758643781189E+02
0.296926510417034E+02
0.290185106131051E+02
0.283582615300275E+02
0.277156013271230E+02
0.270934681749502E+02
0.359142754757856E+02
0.357905734703535E+02
0.355487570869259E+02
0.351993410358954E+02
0.347565774597752E+02
0.342369637706315E+02
0.336577099201559E+02
0.330353991463703E+02
0.323850008993046E+02
0.317192990901259E+02
0.310487109192425E+02
0.303814108986808E+02
0.297236484622703E+02
0.290801516572687E+02
0.284545330354542E+02
0.278496448376958E+02
0.364954996260913E+02
0.363740505887410E+02
0.361366652509800E+02
0.357937173548163E+02
0.353592678399658E+02
0.348495924844039E+02
0.342816693879690E+02
0.336718571740767E+02
0.330349204671492E+02
0.323834649443030E+02
0.317277575660211E+02
0.310758477762856E+02
0.304338796007922E+02
0.298064886219463E+02
0.291972011210108E+02
0.286087832440610E+02
0.370790419046900E+02
0.369597839716951E+02
0.367267066106472E+02
0.363900437877518E+02
0.359636667462483E+02
0.354636311828018E+02
0.349066846868991E+02
0.343089621996254E+02
0.336850239386929E+02
0.330472972560638E+02
0.324058983775612E+02
0.317687509733439E+02
0.311418930011007E+02
0.305298672646937E+02
0.299361141338807E+02
0.293633150315785E+02
0.376566185017392E+02
0.375394656832317E+02
0.373105260178459E+02
0.369798968567555E+02
0.365612639473123E+02
0.360704676250097E+02
0.355240296914091E+02
0.349378657055312E+02
0.343263350852305E+02
0.337016896761660E+02
0.330738970723404E+02
0.324507567625494E+02
0.318382020152140E+02
0.312406843672006E+02
0.306615602844865E+02
0.301034293277731E+02
0.382177548565744E+02
0.381025922957563E+02
0.378775635521796E+02
0.375526348692141E+02
0.371413139064238E+02
0.366592341202408E+02
0.361227002479362E+02
0.355474167310485E+02
0.349475495168575E+02
0.343351811224587E+02
0.337201355638056E+02
0.331100922978647E+02
0.325108834941147E+02
0.319268728593301E+02
0.313613366543346E+02
0.308167969276845E+02
0.387497919282465E+02
0.386364710968094E+02
0.384150605960060E+02
0.380954037856768E+02
0.376908413560686E+02
0.372168127113050E+02
0.366894188571985E+02
0.361241659315232E+02
0.355350379875008E+02
0.349339581923197E+02
0.343306153387195E+02
0.337325758186648E+02
0.331455766845764E+02
0.325738992891529E+02
0.320207451410023E+02
0.314885646450201E+02
0.392382195462548E+02
0.391265541875106E+02
0.389083953922931E+02
0.385934748809623E+02
0.381949816139498E+02
0.377281785900513E+02
0.372089815214386E+02
0.366527160811663E+02
0.360732006784990E+02
0.354822132682343E+02
0.348893193581231E+02
0.343019822681139E+02
0.337258524511363E+02
0.331651365128589E+02
0.326229684708473E+02
0.321017345037201E+02
0.396673947961102E+02
0.395571585709791E+02
0.393418064653747E+02
0.390309729883706E+02
0.386377149535959E+02
0.381771416783836E+02
0.376650073899099E+02
0.371164804135252E+02
0.365452346605631E+02
0.359629213512891E+02
0.353789983666940E+02
0.348008390671289E+02
0.342340184148517E+02
0.336826780327030E+02
0.331498935229981E+02
0.326379958013641E+02
0.400216325274200E+02
0.399125592867122E+02
0.396994908986975E+02
0.393919822318522E+02
0.390029818216109E+02
0.385474730347173E+02
0.380410777151868E+02
0.374988351536660E+02
0.369343007214497E+02
0.363590216375261E+02
0.357823674489585E+02
0.352116377027311E+02
0.346523454852320E+02
0.341085792743102E+02
0.335833670682077E+02
0.330789949576367E+02
0.402865655618479E+02
0.401783529161799E+02
0.399669743008218E+02
0.396619253607372E+02
0.392760741029769E+02
0.388243102079301E+02
0.383221570287013E+02
0.377845578334708E+02
0.372249797586647E+02
0.366548925937969E+02
0.360836001161648E+02
0.355183469281787E+02
0.349646000960413E+02
0.344264086378288E+02
0.339067653003735E+02
0.334079230964809E+02
0.404505872788804E+02
0.403429036771482E+02
0.401325637747041E+02
0.398290266921070E+02
0.394451107692295E+02
0.389956478980011E+02
0.384961006715935E+02
0.379613531120799E+02
0.374048179061574E+02
0.368379170554559E+02
0.362699137442582E+02
0.357080186695675E+02
0.351576705155741E+02
0.346228939920157E+02
0.341066601684394E+02
0.336112017638511E+02
0.405061366242622E+02
0.403986315625287E+02
0.401886421912355E+02
0.398856152852203E+02
0.395023523956050E+02
0.390536658793911E+02
0.385549977890318E+02
0.380212121161694E+02
0.374657031372675E+02
0.368998766952052E+02
0.363329822482017E+02
0.357722190296616E+02
0.352230161304652E+02
0.346893900486610E+02
0.341743045374119E+02
0.336799854741576E+02
</DataArray>
</PointData>
</Piece>
</RectilinearGrid>
</VTKFile>
